11968918
  -OEChem-12071809302D

107111  0     1  0  0  0  0  0999 V2000
    9.5822   -1.3970    0.0000 O   0  0  0  0  0  0  0  0  0  0  0  0
    8.6826    4.1689    0.0000 O   0  0  0  0  0  0  0  0  0  0  0  0
   13.2272   -0.3660    0.0000 O   0  0  0  0  0  0  0  0  0  0  0  0
    7.8501   -1.3970    0.0000 O   0  0  0  0  0  0  0  0  0  0  0  0
    9.5822   -3.3970    0.0000 O   0  0  0  0  0  0  0  0  0  0  0  0
    7.8501   -4.3970    0.0000 O   0  0  0  0  0  0  0  0  0  0  0  0
    6.1181   -3.3970    0.0000 O   0  0  0  0  0  0  0  0  0  0  0  0
    5.2521   -1.8970    0.0000 O   0  0  0  0  0  0  0  0  0  0  0  0
    2.6072    2.0802    0.0000 O   0  0  0  0  0  0  0  0  0  0  0  0
    8.6942    1.1689    0.0000 C   0  0  3  0  0  0  0  0  0  0  0  0
    9.5583    1.6722    0.0000 C   0  0  3  0  0  0  0  0  0  0  0  0
    7.8262    1.6656    0.0000 C   0  0  3  0  0  0  0  0  0  0  0  0
   10.4702    1.1689    0.0000 C   0  0  3  0  0  0  0  0  0  0  0  0
    7.8224    2.6655    0.0000 C   0  0  3  0  0  0  0  0  0  0  0  0
   10.4823    0.1273    0.0000 C   0  0  3  0  0  0  0  0  0  0  0  0
    8.6821    0.1273    0.0000 C   0  0  0  0  0  0  0  0  0  0  0  0
    9.5544    2.6722    0.0000 C   0  0  0  0  0  0  0  0  0  0  0  0
    9.5822   -0.3970    0.0000 C   0  0  3  0  0  0  0  0  0  0  0  0
    8.6865    3.1689    0.0000 C   0  0  3  0  0  0  0  0  0  0  0  0
    6.8812    1.3572    0.0000 C   0  0  0  0  0  0  0  0  0  0  0  0
   11.4198   -0.4188    0.0000 C   0  0  0  0  0  0  0  0  0  0  0  0
    6.8750    2.9666    0.0000 C   0  0  3  0  0  0  0  0  0  0  0  0
   11.3949    1.7365    0.0000 C   0  0  0  0  0  0  0  0  0  0  0  0
    6.2945    2.1596    0.0000 C   0  0  0  0  0  0  0  0  0  0  0  0
    8.0543    0.4004    0.0000 C   0  0  0  0  0  0  0  0  0  0  0  0
    7.4878    0.7245    0.0000 C   0  0  0  0  0  0  0  0  0  0  0  0
   10.4586    2.1688    0.0000 C   0  0  0  0  0  0  0  0  0  0  0  0
   12.3573    0.1273    0.0000 C   0  0  3  0  0  0  0  0  0  0  0  0
   12.3448    1.2122    0.0000 C   0  0  0  0  0  0  0  0  0  0  0  0
   11.9198   -1.2848    0.0000 C   0  0  0  0  0  0  0  0  0  0  0  0
   10.9198   -1.2848    0.0000 C   0  0  0  0  0  0  0  0  0  0  0  0
    6.5607    3.9159    0.0000 C   0  0  0  0  0  0  0  0  0  0  0  0
    8.7162   -1.8970    0.0000 C   0  0  2  0  0  0  0  0  0  0  0  0
    7.2256    4.6628    0.0000 C   0  0  0  0  0  0  0  0  0  0  0  0
    5.5814    4.1184    0.0000 C   0  0  0  0  0  0  0  0  0  0  0  0
    8.7162   -2.8970    0.0000 C   0  0  1  0  0  0  0  0  0  0  0  0
    4.9164    3.3715    0.0000 C   0  0  0  0  0  0  0  0  0  0  0  0
    7.8501   -3.3970    0.0000 C   0  0  2  0  0  0  0  0  0  0  0  0
    6.9841   -1.8970    0.0000 C   0  0  1  0  0  0  0  0  0  0  0  0
    6.9841   -2.8970    0.0000 C   0  0  1  0  0  0  0  0  0  0  0  0
    3.9371    3.5740    0.0000 C   0  0  0  0  0  0  0  0  0  0  0  0
    6.1181   -1.3970    0.0000 C   0  0  0  0  0  0  0  0  0  0  0  0
    3.2721    2.8271    0.0000 C   0  0  0  0  0  0  0  0  0  0  0  0
    2.5253    3.4921    0.0000 C   0  0  0  0  0  0  0  0  0  0  0  0
    4.0190    2.1621    0.0000 C   0  0  0  0  0  0  0  0  0  0  0  0
   10.2894    2.1057    0.0000 H   0  0  0  0  0  0  0  0  0  0  0  0
    7.7292    3.5104    0.0000 H   0  0  0  0  0  0  0  0  0  0  0  0
   10.4823   -0.7227    0.0000 H   0  0  0  0  0  0  0  0  0  0  0  0
    8.0725    0.2405    0.0000 H   0  0  0  0  0  0  0  0  0  0  0  0
    8.4663   -0.4539    0.0000 H   0  0  0  0  0  0  0  0  0  0  0  0
   10.1654    2.5669    0.0000 H   0  0  0  0  0  0  0  0  0  0  0  0
    9.7642    3.2556    0.0000 H   0  0  0  0  0  0  0  0  0  0  0  0
   10.3191   -0.8205    0.0000 H   0  0  0  0  0  0  0  0  0  0  0  0
    9.4209    3.5967    0.0000 H   0  0  0  0  0  0  0  0  0  0  0  0
    6.3450    1.0459    0.0000 H   0  0  0  0  0  0  0  0  0  0  0  0
    7.1344    0.7912    0.0000 H   0  0  0  0  0  0  0  0  0  0  0  0
    7.4724    3.5713    0.0000 H   0  0  0  0  0  0  0  0  0  0  0  0
   11.7829    2.2201    0.0000 H   0  0  0  0  0  0  0  0  0  0  0  0
   10.9849    2.2016    0.0000 H   0  0  0  0  0  0  0  0  0  0  0  0
    5.8320    2.5726    0.0000 H   0  0  0  0  0  0  0  0  0  0  0  0
    5.8352    1.7432    0.0000 H   0  0  0  0  0  0  0  0  0  0  0  0
    7.5778    0.7971    0.0000 H   0  0  0  0  0  0  0  0  0  0  0  0
    7.6576   -0.0761    0.0000 H   0  0  0  0  0  0  0  0  0  0  0  0
    8.5308    0.0037    0.0000 H   0  0  0  0  0  0  0  0  0  0  0  0
    6.9044    0.9343    0.0000 H   0  0  0  0  0  0  0  0  0  0  0  0
    7.2780    0.1411    0.0000 H   0  0  0  0  0  0  0  0  0  0  0  0
    8.0712    0.5147    0.0000 H   0  0  0  0  0  0  0  0  0  0  0  0
   11.0786    2.1760    0.0000 H   0  0  0  0  0  0  0  0  0  0  0  0
   10.4515    2.7888    0.0000 H   0  0  0  0  0  0  0  0  0  0  0  0
    9.8387    2.1616    0.0000 H   0  0  0  0  0  0  0  0  0  0  0  0
   12.3622   -0.7227    0.0000 H   0  0  0  0  0  0  0  0  0  0  0  0
   12.9568    1.1132    0.0000 H   0  0  0  0  0  0  0  0  0  0  0  0
   12.5471    1.7983    0.0000 H   0  0  0  0  0  0  0  0  0  0  0  0
   11.3829   -1.5948    0.0000 H   0  0  0  0  0  0  0  0  0  0  0  0
   12.2298   -1.8218    0.0000 H   0  0  0  0  0  0  0  0  0  0  0  0
   12.4567   -0.9748    0.0000 H   0  0  0  0  0  0  0  0  0  0  0  0
   10.3829   -0.9748    0.0000 H   0  0  0  0  0  0  0  0  0  0  0  0
   10.6098   -1.8218    0.0000 H   0  0  0  0  0  0  0  0  0  0  0  0
   11.4567   -1.5948    0.0000 H   0  0  0  0  0  0  0  0  0  0  0  0
    9.2183    4.4809    0.0000 H   0  0  0  0  0  0  0  0  0  0  0  0
    8.7162   -1.2770    0.0000 H   0  0  0  0  0  0  0  0  0  0  0  0
   13.7617   -0.0519    0.0000 H   0  0  0  0  0  0  0  0  0  0  0  0
    7.6887    4.2505    0.0000 H   0  0  0  0  0  0  0  0  0  0  0  0
    7.6379    5.1259    0.0000 H   0  0  0  0  0  0  0  0  0  0  0  0
    6.7626    5.0751    0.0000 H   0  0  0  0  0  0  0  0  0  0  0  0
    5.3865    4.7070    0.0000 H   0  0  0  0  0  0  0  0  0  0  0  0
    8.7162   -3.5170    0.0000 H   0  0  0  0  0  0  0  0  0  0  0  0
    4.6874    2.7954    0.0000 H   0  0  0  0  0  0  0  0  0  0  0  0
    5.4440    3.0459    0.0000 H   0  0  0  0  0  0  0  0  0  0  0  0
    7.3132   -3.7070    0.0000 H   0  0  0  0  0  0  0  0  0  0  0  0
    6.9841   -1.2770    0.0000 H   0  0  0  0  0  0  0  0  0  0  0  0
    6.4472   -2.5870    0.0000 H   0  0  0  0  0  0  0  0  0  0  0  0
    4.1661    4.1501    0.0000 H   0  0  0  0  0  0  0  0  0  0  0  0
    3.4095    3.8996    0.0000 H   0  0  0  0  0  0  0  0  0  0  0  0
    9.5822   -4.0170    0.0000 H   0  0  0  0  0  0  0  0  0  0  0  0
    6.5166   -0.9220    0.0000 H   0  0  0  0  0  0  0  0  0  0  0  0
    5.7196   -0.9220    0.0000 H   0  0  0  0  0  0  0  0  0  0  0  0
    7.3132   -4.7070    0.0000 H   0  0  0  0  0  0  0  0  0  0  0  0
    6.1181   -4.0170    0.0000 H   0  0  0  0  0  0  0  0  0  0  0  0
    3.6067    1.6991    0.0000 H   0  0  0  0  0  0  0  0  0  0  0  0
    2.9375    3.9551    0.0000 H   0  0  0  0  0  0  0  0  0  0  0  0
    4.4821    1.7498    0.0000 H   0  0  0  0  0  0  0  0  0  0  0  0
    4.4313    2.6252    0.0000 H   0  0  0  0  0  0  0  0  0  0  0  0
    2.0622    3.9043    0.0000 H   0  0  0  0  0  0  0  0  0  0  0  0
    2.1130    3.0290    0.0000 H   0  0  0  0  0  0  0  0  0  0  0  0
    4.7151   -1.5870    0.0000 H   0  0  0  0  0  0  0  0  0  0  0  0
    2.0000    2.2057    0.0000 H   0  0  0  0  0  0  0  0  0  0  0  0
  1 18  1  0  0  0  0
 33  1  1  1  0  0  0
  2 19  1  0  0  0  0
  2 80  1  0  0  0  0
  3 28  1  0  0  0  0
  3 82  1  0  0  0  0
  4 33  1  0  0  0  0
  4 39  1  0  0  0  0
 36  5  1  6  0  0  0
  5 95  1  0  0  0  0
 38  6  1  1  0  0  0
  6 98  1  0  0  0  0
 40  7  1  6  0  0  0
  7 99  1  0  0  0  0
  8 42  1  0  0  0  0
  8106  1  0  0  0  0
  9 43  1  0  0  0  0
  9107  1  0  0  0  0
 10 11  1  0  0  0  0
 10 12  1  0  0  0  0
 10 16  1  0  0  0  0
 10 25  1  0  0  0  0
 11 13  1  0  0  0  0
 11 17  1  0  0  0  0
 11 46  1  0  0  0  0
 12 14  1  0  0  0  0
 12 20  1  0  0  0  0
 12 26  1  0  0  0  0
 13 15  1  0  0  0  0
 13 23  1  0  0  0  0
 13 27  1  0  0  0  0
 14 19  1  0  0  0  0
 14 22  1  0  0  0  0
 14 47  1  0  0  0  0
 15 18  1  0  0  0  0
 15 21  1  0  0  0  0
 15 48  1  0  0  0  0
 16 18  1  0  0  0  0
 16 49  1  0  0  0  0
 16 50  1  0  0  0  0
 17 19  1  0  0  0  0
 17 51  1  0  0  0  0
 17 52  1  0  0  0  0
 18 53  1  0  0  0  0
 19 54  1  0  0  0  0
 20 24  1  0  0  0  0
 20 55  1  0  0  0  0
 20 56  1  0  0  0  0
 21 28  1  0  0  0  0
 21 30  1  0  0  0  0
 21 31  1  0  0  0  0
 22 24  1  0  0  0  0
 22 32  1  0  0  0  0
 22 57  1  0  0  0  0
 23 29  1  0  0  0  0
 23 58  1  0  0  0  0
 23 59  1  0  0  0  0
 24 60  1  0  0  0  0
 24 61  1  0  0  0  0
 25 62  1  0  0  0  0
 25 63  1  0  0  0  0
 25 64  1  0  0  0  0
 26 65  1  0  0  0  0
 26 66  1  0  0  0  0
 26 67  1  0  0  0  0
 27 68  1  0  0  0  0
 27 69  1  0  0  0  0
 27 70  1  0  0  0  0
 28 29  1  0  0  0  0
 28 71  1  0  0  0  0
 29 72  1  0  0  0  0
 29 73  1  0  0  0  0
 30 74  1  0  0  0  0
 30 75  1  0  0  0  0
 30 76  1  0  0  0  0
 31 77  1  0  0  0  0
 31 78  1  0  0  0  0
 31 79  1  0  0  0  0
 32 34  1  0  0  0  0
 32 35  2  0  0  0  0
 33 36  1  0  0  0  0
 33 81  1  0  0  0  0
 34 83  1  0  0  0  0
 34 84  1  0  0  0  0
 34 85  1  0  0  0  0
 35 37  1  0  0  0  0
 35 86  1  0  0  0  0
 36 38  1  0  0  0  0
 36 87  1  0  0  0  0
 37 41  1  0  0  0  0
 37 88  1  0  0  0  0
 37 89  1  0  0  0  0
 38 40  1  0  0  0  0
 38 90  1  0  0  0  0
 39 40  1  0  0  0  0
 39 42  1  1  0  0  0
 39 91  1  0  0  0  0
 40 92  1  0  0  0  0
 41 43  1  0  0  0  0
 41 93  1  0  0  0  0
 41 94  1  0  0  0  0
 42 96  1  0  0  0  0
 42 97  1  0  0  0  0
 43 44  1  0  0  0  0
 43 45  1  0  0  0  0
 44101  1  0  0  0  0
 44104  1  0  0  0  0
 44105  1  0  0  0  0
 45100  1  0  0  0  0
 45102  1  0  0  0  0
 45103  1  0  0  0  0
M  END
> <PUBCHEM_COMPOUND_CID>
11968918

> <PUBCHEM_COMPOUND_CANONICALIZED>
1

> <PUBCHEM_CACTVS_COMPLEXITY>
1110

> <PUBCHEM_CACTVS_HBOND_ACCEPTOR>
9

> <PUBCHEM_CACTVS_HBOND_DONOR>
7

> <PUBCHEM_CACTVS_ROTATABLE_BOND>
7

> <PUBCHEM_CACTVS_SUBSKEYS>
AAADcfB8PAAAAAAAAAAAAAAAAAAAAYAAAAA0YMEAAAAAAGDAAAAAGgAACAAAD1SwgAMCCAAABgCAAiBCAAAAAAAgAAAACAAAAAgREAIAAQAiQAAFgAAPAAPA4PwPgAAAAAAAAADAAAYAADAAAQAACAAAAA==

> <PUBCHEM_IUPAC_OPENEYE_NAME>
(2R,3R,4S,5S,6R)-2-[[3,12-dihydroxy-17-[(Z)-5-hydroxy-1,5-dimethyl-hex-1-enyl]-4,4,8,10,14-pentamethyl-2,3,5,6,7,9,11,12,13,15,16,17-dodecahydro-1H-cyclopenta[a]phenanthren-6-yl]oxy]-6-(hydroxymethyl)tetrahydropyran-3,4,5-triol

> <PUBCHEM_IUPAC_CAS_NAME>
(2R,3R,4S,5S,6R)-2-[[3,12-dihydroxy-17-[(Z)-6-hydroxy-6-methylhept-2-en-2-yl]-4,4,8,10,14-pentamethyl-2,3,5,6,7,9,11,12,13,15,16,17-dodecahydro-1H-cyclopenta[a]phenanthren-6-yl]oxy]-6-(hydroxymethyl)oxane-3,4,5-triol

> <PUBCHEM_IUPAC_NAME>
(2R,3R,4S,5S,6R)-2-[[3,12-dihydroxy-17-[(Z)-6-hydroxy-6-methylhept-2-en-2-yl]-4,4,8,10,14-pentamethyl-2,3,5,6,7,9,11,12,13,15,16,17-dodecahydro-1H-cyclopenta[a]phenanthren-6-yl]oxy]-6-(hydroxymethyl)oxane-3,4,5-triol

> <PUBCHEM_IUPAC_SYSTEMATIC_NAME>
(2R,3S,4S,5R,6R)-2-(hydroxymethyl)-6-[[4,4,8,10,14-pentamethyl-17-[(Z)-6-methyl-6-oxidanyl-hept-2-en-2-yl]-3,12-bis(oxidanyl)-2,3,5,6,7,9,11,12,13,15,16,17-dodecahydro-1H-cyclopenta[a]phenanthren-6-yl]oxy]oxane-3,4,5-triol

> <PUBCHEM_IUPAC_TRADITIONAL_NAME>
(2R,3R,4S,5S,6R)-2-[[3,12-dihydroxy-17-[(Z)-5-hydroxy-1,5-dimethyl-hex-1-enyl]-4,4,8,10,14-pentamethyl-2,3,5,6,7,9,11,12,13,15,16,17-dodecahydro-1H-cyclopenta[a]phenanthren-6-yl]oxy]-6-methylol-tetrahydropyran-3,4,5-triol

> <PUBCHEM_IUPAC_INCHI>
InChI=1S/C36H62O9/c1-19(10-9-13-32(2,3)43)20-11-15-35(7)26(20)21(38)16-24-34(6)14-12-25(39)33(4,5)30(34)22(17-36(24,35)8)44-31-29(42)28(41)27(40)23(18-37)45-31/h10,20-31,37-43H,9,11-18H2,1-8H3/b19-10-/t20?,21?,22?,23-,24?,25?,26?,27-,28+,29-,30?,31-,34?,35?,36?/m1/s1

> <PUBCHEM_IUPAC_INCHIKEY>
SLPPUMWTJMNBCW-JPLHBASJSA-N

> <PUBCHEM_XLOGP3_AA>
4.2

> <PUBCHEM_EXACT_MASS>
638.439

> <PUBCHEM_MOLECULAR_FORMULA>
C36H62O9

> <PUBCHEM_MOLECULAR_WEIGHT>
638.883

> <PUBCHEM_OPENEYE_CAN_SMILES>
CC(=CCCC(C)(C)O)C1CCC2(C1C(CC3C2(CC(C4C3(CCC(C4(C)C)O)C)OC5C(C(C(C(O5)CO)O)O)O)C)O)C

> <PUBCHEM_OPENEYE_ISO_SMILES>
C/C(=C/CCC(C)(C)O)/C1CCC2(C1C(CC3C2(CC(C4C3(CCC(C4(C)C)O)C)O[C@H]5[C@@H]([C@H]([C@@H]([C@H](O5)CO)O)O)O)C)O)C

> <PUBCHEM_CACTVS_TPSA>
160

> <PUBCHEM_MONOISOTOPIC_WEIGHT>
638.439

> <PUBCHEM_TOTAL_CHARGE>
0

> <PUBCHEM_HEAVY_ATOM_COUNT>
45

> <PUBCHEM_ATOM_DEF_STEREO_COUNT>
5

> <PUBCHEM_ATOM_UDEF_STEREO_COUNT>
10

> <PUBCHEM_BOND_DEF_STEREO_COUNT>
1

> <PUBCHEM_BOND_UDEF_STEREO_COUNT>
0

> <PUBCHEM_ISOTOPIC_ATOM_COUNT>
0

> <PUBCHEM_COMPONENT_COUNT>
1

> <PUBCHEM_CACTVS_TAUTO_COUNT>
1

> <PUBCHEM_COORDINATE_TYPE>
1
5
255

> <PUBCHEM_BONDANNOTATIONS>
33  1  5
10  25  3
11  46  3
12  26  3
13  27  3
14  47  3
15  48  3
18  53  3
19  54  3
22  57  3
28  71  3
39  42  5
36  5  6
38  6  5
40  7  6

$$$$
