3016081
  -OEChem-12071809302D

 30 30  0     0  0  0  0  0  0999 V2000
    3.7320    2.3450    0.0000 O   0  0  0  0  0  0  0  0  0  0  0  0
    5.4641   -1.6550    0.0000 O   0  0  0  0  0  0  0  0  0  0  0  0
    2.0000   -1.6550    0.0000 O   0  0  0  0  0  0  0  0  0  0  0  0
    3.7320    1.3450    0.0000 C   0  0  0  0  0  0  0  0  0  0  0  0
    3.7320    0.3450    0.0000 C   0  0  0  0  0  0  0  0  0  0  0  0
    4.7320    1.3450    0.0000 C   0  0  0  0  0  0  0  0  0  0  0  0
    2.7320    1.3450    0.0000 C   0  0  0  0  0  0  0  0  0  0  0  0
    2.8660   -0.1550    0.0000 C   0  0  0  0  0  0  0  0  0  0  0  0
    4.5981   -0.1550    0.0000 C   0  0  0  0  0  0  0  0  0  0  0  0
    4.5981   -1.1550    0.0000 C   0  0  0  0  0  0  0  0  0  0  0  0
    2.8660   -1.1550    0.0000 C   0  0  0  0  0  0  0  0  0  0  0  0
    3.7320   -1.6550    0.0000 C   0  0  0  0  0  0  0  0  0  0  0  0
    5.4641   -2.6550    0.0000 C   0  0  0  0  0  0  0  0  0  0  0  0
    2.0000   -2.6550    0.0000 C   0  0  0  0  0  0  0  0  0  0  0  0
    4.7320    0.7250    0.0000 H   0  0  0  0  0  0  0  0  0  0  0  0
    5.3520    1.3450    0.0000 H   0  0  0  0  0  0  0  0  0  0  0  0
    2.7320    1.9650    0.0000 H   0  0  0  0  0  0  0  0  0  0  0  0
    2.1120    1.3450    0.0000 H   0  0  0  0  0  0  0  0  0  0  0  0
    2.7320    0.7250    0.0000 H   0  0  0  0  0  0  0  0  0  0  0  0
    4.7320    1.9650    0.0000 H   0  0  0  0  0  0  0  0  0  0  0  0
    2.3291    0.1550    0.0000 H   0  0  0  0  0  0  0  0  0  0  0  0
    5.1350    0.1550    0.0000 H   0  0  0  0  0  0  0  0  0  0  0  0
    3.7320   -2.2750    0.0000 H   0  0  0  0  0  0  0  0  0  0  0  0
    4.2690    2.6550    0.0000 H   0  0  0  0  0  0  0  0  0  0  0  0
    4.8441   -2.6550    0.0000 H   0  0  0  0  0  0  0  0  0  0  0  0
    5.4641   -3.2750    0.0000 H   0  0  0  0  0  0  0  0  0  0  0  0
    6.0841   -2.6550    0.0000 H   0  0  0  0  0  0  0  0  0  0  0  0
    1.3800   -2.6550    0.0000 H   0  0  0  0  0  0  0  0  0  0  0  0
    2.0000   -3.2750    0.0000 H   0  0  0  0  0  0  0  0  0  0  0  0
    2.6200   -2.6550    0.0000 H   0  0  0  0  0  0  0  0  0  0  0  0
  1  4  1  0  0  0  0
  1 24  1  0  0  0  0
  2 10  1  0  0  0  0
  2 13  1  0  0  0  0
  3 11  1  0  0  0  0
  3 14  1  0  0  0  0
  4  5  1  0  0  0  0
  4  6  1  0  0  0  0
  4  7  1  0  0  0  0
  5  8  2  0  0  0  0
  5  9  1  0  0  0  0
  6 15  1  0  0  0  0
  6 16  1  0  0  0  0
  6 20  1  0  0  0  0
  7 17  1  0  0  0  0
  7 18  1  0  0  0  0
  7 19  1  0  0  0  0
  8 11  1  0  0  0  0
  8 21  1  0  0  0  0
  9 10  2  0  0  0  0
  9 22  1  0  0  0  0
 10 12  1  0  0  0  0
 11 12  2  0  0  0  0
 12 23  1  0  0  0  0
 13 25  1  0  0  0  0
 13 26  1  0  0  0  0
 13 27  1  0  0  0  0
 14 28  1  0  0  0  0
 14 29  1  0  0  0  0
 14 30  1  0  0  0  0
M  END
> <PUBCHEM_COMPOUND_CID>
3016081

> <PUBCHEM_COMPOUND_CANONICALIZED>
1

> <PUBCHEM_CACTVS_COMPLEXITY>
167

> <PUBCHEM_CACTVS_HBOND_ACCEPTOR>
3

> <PUBCHEM_CACTVS_HBOND_DONOR>
1

> <PUBCHEM_CACTVS_ROTATABLE_BOND>
3

> <PUBCHEM_CACTVS_SUBSKEYS>
AAADceBwMAAAAAAAAAAAAAAAAAAAAAAAAAAwAAAAAAAAAAABAAAAGgAACAAADESAmAIyBoAABgCAAiBCAAACCAAgIAAAiAAGCIgMJyKEMRqAcCAlwBUIuAfA4PwOgAABCAAAAAAAAAIQAAAAAAAAAAAAAA==

> <PUBCHEM_IUPAC_OPENEYE_NAME>
2-(3,5-dimethoxyphenyl)propan-2-ol

> <PUBCHEM_IUPAC_CAS_NAME>
2-(3,5-dimethoxyphenyl)-2-propanol

> <PUBCHEM_IUPAC_NAME>
2-(3,5-dimethoxyphenyl)propan-2-ol

> <PUBCHEM_IUPAC_SYSTEMATIC_NAME>
2-(3,5-dimethoxyphenyl)propan-2-ol

> <PUBCHEM_IUPAC_TRADITIONAL_NAME>
2-(3,5-dimethoxyphenyl)propan-2-ol

> <PUBCHEM_IUPAC_INCHI>
InChI=1S/C11H16O3/c1-11(2,12)8-5-9(13-3)7-10(6-8)14-4/h5-7,12H,1-4H3

> <PUBCHEM_IUPAC_INCHIKEY>
HJWIHSLWFROGED-UHFFFAOYSA-N

> <PUBCHEM_XLOGP3_AA>
1.6

> <PUBCHEM_EXACT_MASS>
196.11

> <PUBCHEM_MOLECULAR_FORMULA>
C11H16O3

> <PUBCHEM_MOLECULAR_WEIGHT>
196.246

> <PUBCHEM_OPENEYE_CAN_SMILES>
CC(C)(C1=CC(=CC(=C1)OC)OC)O

> <PUBCHEM_OPENEYE_ISO_SMILES>
CC(C)(C1=CC(=CC(=C1)OC)OC)O

> <PUBCHEM_CACTVS_TPSA>
38.7

> <PUBCHEM_MONOISOTOPIC_WEIGHT>
196.11

> <PUBCHEM_TOTAL_CHARGE>
0

> <PUBCHEM_HEAVY_ATOM_COUNT>
14

> <PUBCHEM_ATOM_DEF_STEREO_COUNT>
0

> <PUBCHEM_ATOM_UDEF_STEREO_COUNT>
0

> <PUBCHEM_BOND_DEF_STEREO_COUNT>
0

> <PUBCHEM_BOND_UDEF_STEREO_COUNT>
0

> <PUBCHEM_ISOTOPIC_ATOM_COUNT>
0

> <PUBCHEM_COMPONENT_COUNT>
1

> <PUBCHEM_CACTVS_TAUTO_COUNT>
1

> <PUBCHEM_COORDINATE_TYPE>
1
5
255

> <PUBCHEM_BONDANNOTATIONS>
10  12  8
11  12  8
5  8  8
5  9  8
8  11  8
9  10  8

$$$$
