21597638
  -OEChem-12071809342D

 49 51  0     0  0  0  0  0  0999 V2000
    8.9942   -0.4254    0.0000 O   0  0  0  0  0  0  0  0  0  0  0  0
    5.4641   -0.4495    0.0000 O   0  0  0  0  0  0  0  0  0  0  0  0
   10.7263    1.5746    0.0000 O   0  0  0  0  0  0  0  0  0  0  0  0
    7.2458    2.6092    0.0000 O   0  0  0  0  0  0  0  0  0  0  0  0
    8.9942    2.5746    0.0000 O   0  0  0  0  0  0  0  0  0  0  0  0
    9.8602   -1.9254    0.0000 O   0  0  0  0  0  0  0  0  0  0  0  0
    8.1282    1.0746    0.0000 C   0  0  0  0  0  0  0  0  0  0  0  0
    8.1282    0.0746    0.0000 C   0  0  0  0  0  0  0  0  0  0  0  0
    9.8602    0.0746    0.0000 C   0  0  0  0  0  0  0  0  0  0  0  0
    3.7320   -0.4562    0.0000 C   0  0  0  0  0  0  0  0  0  0  0  0
    6.3282    0.0538    0.0000 C   0  0  0  0  0  0  0  0  0  0  0  0
    4.5961    0.0471    0.0000 C   0  0  0  0  0  0  0  0  0  0  0  0
    9.8602    1.0746    0.0000 C   0  0  0  0  0  0  0  0  0  0  0  0
    7.2342   -0.4601    0.0000 C   0  0  0  0  0  0  0  0  0  0  0  0
    8.9942    1.5746    0.0000 C   0  0  0  0  0  0  0  0  0  0  0  0
    7.2342    1.6093    0.0000 C   0  0  0  0  0  0  0  0  0  0  0  0
   10.7263   -0.4254    0.0000 C   0  0  0  0  0  0  0  0  0  0  0  0
    2.8641    0.0404    0.0000 C   0  0  0  0  0  0  0  0  0  0  0  0
    6.3282    1.0954    0.0000 C   0  0  0  0  0  0  0  0  0  0  0  0
   10.7263   -1.4254    0.0000 C   0  0  0  0  0  0  0  0  0  0  0  0
   11.5923    0.0746    0.0000 C   0  0  0  0  0  0  0  0  0  0  0  0
    2.0000   -0.4629    0.0000 C   0  0  0  0  0  0  0  0  0  0  0  0
   11.5923   -1.9254    0.0000 C   0  0  0  0  0  0  0  0  0  0  0  0
   12.4583   -0.4254    0.0000 C   0  0  0  0  0  0  0  0  0  0  0  0
   12.4583   -1.4254    0.0000 C   0  0  0  0  0  0  0  0  0  0  0  0
   10.7263    2.5746    0.0000 C   0  0  0  0  0  0  0  0  0  0  0  0
    9.8602   -2.9254    0.0000 C   0  0  0  0  0  0  0  0  0  0  0  0
    3.3353   -0.9327    0.0000 H   0  0  0  0  0  0  0  0  0  0  0  0
    4.1324   -0.9296    0.0000 H   0  0  0  0  0  0  0  0  0  0  0  0
    4.9928    0.5236    0.0000 H   0  0  0  0  0  0  0  0  0  0  0  0
    4.1958    0.5205    0.0000 H   0  0  0  0  0  0  0  0  0  0  0  0
    7.2414   -1.0800    0.0000 H   0  0  0  0  0  0  0  0  0  0  0  0
    3.2608    0.5169    0.0000 H   0  0  0  0  0  0  0  0  0  0  0  0
    2.4637    0.5138    0.0000 H   0  0  0  0  0  0  0  0  0  0  0  0
    5.7924    1.4075    0.0000 H   0  0  0  0  0  0  0  0  0  0  0  0
   11.5923    0.6946    0.0000 H   0  0  0  0  0  0  0  0  0  0  0  0
    1.6879    0.0728    0.0000 H   0  0  0  0  0  0  0  0  0  0  0  0
    1.4643   -0.7750    0.0000 H   0  0  0  0  0  0  0  0  0  0  0  0
    2.3121   -0.9986    0.0000 H   0  0  0  0  0  0  0  0  0  0  0  0
   11.5923   -2.5454    0.0000 H   0  0  0  0  0  0  0  0  0  0  0  0
   12.9952   -0.1154    0.0000 H   0  0  0  0  0  0  0  0  0  0  0  0
   12.9952   -1.7354    0.0000 H   0  0  0  0  0  0  0  0  0  0  0  0
    6.7125    2.9254    0.0000 H   0  0  0  0  0  0  0  0  0  0  0  0
   11.3463    2.5746    0.0000 H   0  0  0  0  0  0  0  0  0  0  0  0
   10.7263    3.1946    0.0000 H   0  0  0  0  0  0  0  0  0  0  0  0
   10.1063    2.5746    0.0000 H   0  0  0  0  0  0  0  0  0  0  0  0
    9.2402   -2.9254    0.0000 H   0  0  0  0  0  0  0  0  0  0  0  0
    9.8602   -3.5454    0.0000 H   0  0  0  0  0  0  0  0  0  0  0  0
   10.4802   -2.9254    0.0000 H   0  0  0  0  0  0  0  0  0  0  0  0
  1  8  1  0  0  0  0
  1  9  1  0  0  0  0
  2 11  1  0  0  0  0
  2 12  1  0  0  0  0
  3 13  1  0  0  0  0
  3 26  1  0  0  0  0
  4 16  1  0  0  0  0
  4 43  1  0  0  0  0
  5 15  2  0  0  0  0
  6 20  1  0  0  0  0
  6 27  1  0  0  0  0
  7  8  1  0  0  0  0
  7 15  1  0  0  0  0
  7 16  2  0  0  0  0
  8 14  2  0  0  0  0
  9 13  2  0  0  0  0
  9 17  1  0  0  0  0
 10 12  1  0  0  0  0
 10 18  1  0  0  0  0
 10 28  1  0  0  0  0
 10 29  1  0  0  0  0
 11 14  1  0  0  0  0
 11 19  2  0  0  0  0
 12 30  1  0  0  0  0
 12 31  1  0  0  0  0
 13 15  1  0  0  0  0
 14 32  1  0  0  0  0
 16 19  1  0  0  0  0
 17 20  1  0  0  0  0
 17 21  2  0  0  0  0
 18 22  1  0  0  0  0
 18 33  1  0  0  0  0
 18 34  1  0  0  0  0
 19 35  1  0  0  0  0
 20 23  2  0  0  0  0
 21 24  1  0  0  0  0
 21 36  1  0  0  0  0
 22 37  1  0  0  0  0
 22 38  1  0  0  0  0
 22 39  1  0  0  0  0
 23 25  1  0  0  0  0
 23 40  1  0  0  0  0
 24 25  2  0  0  0  0
 24 41  1  0  0  0  0
 25 42  1  0  0  0  0
 26 44  1  0  0  0  0
 26 45  1  0  0  0  0
 26 46  1  0  0  0  0
 27 47  1  0  0  0  0
 27 48  1  0  0  0  0
 27 49  1  0  0  0  0
M  END
> <PUBCHEM_COMPOUND_CID>
21597638

> <PUBCHEM_COMPOUND_CANONICALIZED>
1

> <PUBCHEM_CACTVS_COMPLEXITY>
545

> <PUBCHEM_CACTVS_HBOND_ACCEPTOR>
6

> <PUBCHEM_CACTVS_HBOND_DONOR>
1

> <PUBCHEM_CACTVS_ROTATABLE_BOND>
7

> <PUBCHEM_CACTVS_SUBSKEYS>
AAADceB4OAAAAAAAAAAAAAAAAAAAAAAAAAAwYIAAAAAAAACBQAAAGgAACAAADASgmAIyBoAABgCIAqBSAAICCAAkIAAIiAFGCMgMJzaGNR6CeWCl4BUIuQfI7KzOIAAACAAIAABAAAAQABAAAAAAAAAAAA==

> <PUBCHEM_IUPAC_OPENEYE_NAME>
7-butoxy-5-hydroxy-3-methoxy-2-(2-methoxyphenyl)chromen-4-one

> <PUBCHEM_IUPAC_CAS_NAME>
7-butoxy-5-hydroxy-3-methoxy-2-(2-methoxyphenyl)-1-benzopyran-4-one

> <PUBCHEM_IUPAC_NAME>
7-butoxy-5-hydroxy-3-methoxy-2-(2-methoxyphenyl)chromen-4-one

> <PUBCHEM_IUPAC_SYSTEMATIC_NAME>
7-butoxy-3-methoxy-2-(2-methoxyphenyl)-5-oxidanyl-chromen-4-one

> <PUBCHEM_IUPAC_TRADITIONAL_NAME>
7-butoxy-5-hydroxy-3-methoxy-2-(2-methoxyphenyl)chromone

> <PUBCHEM_IUPAC_INCHI>
InChI=1S/C21H22O6/c1-4-5-10-26-13-11-15(22)18-17(12-13)27-20(21(25-3)19(18)23)14-8-6-7-9-16(14)24-2/h6-9,11-12,22H,4-5,10H2,1-3H3

> <PUBCHEM_IUPAC_INCHIKEY>
VABLLDMFSDHKJI-UHFFFAOYSA-N

> <PUBCHEM_XLOGP3_AA>
4.8

> <PUBCHEM_EXACT_MASS>
370.142

> <PUBCHEM_MOLECULAR_FORMULA>
C21H22O6

> <PUBCHEM_MOLECULAR_WEIGHT>
370.401

> <PUBCHEM_OPENEYE_CAN_SMILES>
CCCCOC1=CC(=C2C(=C1)OC(=C(C2=O)OC)C3=CC=CC=C3OC)O

> <PUBCHEM_OPENEYE_ISO_SMILES>
CCCCOC1=CC(=C2C(=C1)OC(=C(C2=O)OC)C3=CC=CC=C3OC)O

> <PUBCHEM_CACTVS_TPSA>
74.2

> <PUBCHEM_MONOISOTOPIC_WEIGHT>
370.142

> <PUBCHEM_TOTAL_CHARGE>
0

> <PUBCHEM_HEAVY_ATOM_COUNT>
27

> <PUBCHEM_ATOM_DEF_STEREO_COUNT>
0

> <PUBCHEM_ATOM_UDEF_STEREO_COUNT>
0

> <PUBCHEM_BOND_DEF_STEREO_COUNT>
0

> <PUBCHEM_BOND_UDEF_STEREO_COUNT>
0

> <PUBCHEM_ISOTOPIC_ATOM_COUNT>
0

> <PUBCHEM_COMPONENT_COUNT>
1

> <PUBCHEM_CACTVS_TAUTO_COUNT>
5

> <PUBCHEM_COORDINATE_TYPE>
1
5
255

> <PUBCHEM_BONDANNOTATIONS>
1  8  8
1  9  8
11  14  8
11  19  8
13  15  8
16  19  8
17  20  8
17  21  8
20  23  8
21  24  8
23  25  8
24  25  8
7  15  8
7  16  8
7  8  8
8  14  8
9  13  8

$$$$
