10676870
  -OEChem-12071809222D

129134  0     1  0  0  0  0  0999 V2000
    9.5080   -3.2139    0.0000 O   0  0  0  0  0  0  0  0  0  0  0  0
    8.6084    2.3519    0.0000 O   0  0  0  0  0  0  0  0  0  0  0  0
    6.8594    3.1488    0.0000 O   0  0  0  0  0  0  0  0  0  0  0  0
   13.1530   -2.1829    0.0000 O   0  0  0  0  0  0  0  0  0  0  0  0
    7.7759   -3.2139    0.0000 O   0  0  0  0  0  0  0  0  0  0  0  0
    5.1281    3.1996    0.0000 O   0  0  0  0  0  0  0  0  0  0  0  0
    9.5080   -5.2139    0.0000 O   0  0  0  0  0  0  0  0  0  0  0  0
    7.7759   -6.2139    0.0000 O   0  0  0  0  0  0  0  0  0  0  0  0
    6.9180    5.1480    0.0000 O   0  0  0  0  0  0  0  0  0  0  0  0
    6.0439   -5.2139    0.0000 O   0  0  0  0  0  0  0  0  0  0  0  0
    5.2160    6.1983    0.0000 O   0  0  0  0  0  0  0  0  0  0  0  0
    3.4554    5.2495    0.0000 O   0  0  0  0  0  0  0  0  0  0  0  0
    5.1778   -3.7139    0.0000 O   0  0  0  0  0  0  0  0  0  0  0  0
    3.2554   -0.3451    0.0000 O   0  0  0  0  0  0  0  0  0  0  0  0
    2.5458    3.7756    0.0000 O   0  0  0  0  0  0  0  0  0  0  0  0
    8.6200   -0.6481    0.0000 C   0  0  1  0  0  0  0  0  0  0  0  0
    7.7520   -0.1514    0.0000 C   0  0  1  0  0  0  0  0  0  0  0  0
    9.4840   -0.1447    0.0000 C   0  0  1  0  0  0  0  0  0  0  0  0
   10.3960   -0.6481    0.0000 C   0  0  2  0  0  0  0  0  0  0  0  0
    7.7482    0.8486    0.0000 C   0  0  1  0  0  0  0  0  0  0  0  0
   10.4080   -1.6896    0.0000 C   0  0  1  0  0  0  0  0  0  0  0  0
    8.6079   -1.6896    0.0000 C   0  0  0  0  0  0  0  0  0  0  0  0
    9.4802    0.8553    0.0000 C   0  0  0  0  0  0  0  0  0  0  0  0
    6.8008    1.1497    0.0000 C   0  0  2  0  0  0  0  0  0  0  0  0
    8.6122    1.3519    0.0000 C   0  0  1  0  0  0  0  0  0  0  0  0
    6.8070   -0.4598    0.0000 C   0  0  0  0  0  0  0  0  0  0  0  0
    9.5080   -2.2139    0.0000 C   0  0  2  0  0  0  0  0  0  0  0  0
   11.3456   -2.2357    0.0000 C   0  0  0  0  0  0  0  0  0  0  0  0
    6.2203    0.3427    0.0000 C   0  0  0  0  0  0  0  0  0  0  0  0
   11.3206   -0.0804    0.0000 C   0  0  0  0  0  0  0  0  0  0  0  0
    7.9801   -1.4166    0.0000 C   0  0  0  0  0  0  0  0  0  0  0  0
    7.4136   -1.0924    0.0000 C   0  0  0  0  0  0  0  0  0  0  0  0
   10.3844    0.3519    0.0000 C   0  0  0  0  0  0  0  0  0  0  0  0
   12.2831   -1.6896    0.0000 C   0  0  2  0  0  0  0  0  0  0  0  0
    6.8301    2.1492    0.0000 C   0  0  2  0  0  0  0  0  0  0  0  0
   12.2706   -0.6047    0.0000 C   0  0  0  0  0  0  0  0  0  0  0  0
   11.8456   -3.1018    0.0000 C   0  0  0  0  0  0  0  0  0  0  0  0
   10.8456   -3.1018    0.0000 C   0  0  0  0  0  0  0  0  0  0  0  0
    5.8305    2.1786    0.0000 C   0  0  0  0  0  0  0  0  0  0  0  0
    7.8296    2.1199    0.0000 C   0  0  0  0  0  0  0  0  0  0  0  0
    8.6420   -3.7139    0.0000 C   0  0  2  0  0  0  0  0  0  0  0  0
    6.0084    3.6740    0.0000 C   0  0  2  0  0  0  0  0  0  0  0  0
    5.3054    1.3276    0.0000 C   0  0  0  0  0  0  0  0  0  0  0  0
    8.6420   -4.7139    0.0000 C   0  0  1  0  0  0  0  0  0  0  0  0
    7.7759   -5.2139    0.0000 C   0  0  2  0  0  0  0  0  0  0  0  0
    6.0377    4.6736    0.0000 C   0  0  1  0  0  0  0  0  0  0  0  0
    6.9099   -3.7139    0.0000 C   0  0  1  0  0  0  0  0  0  0  0  0
    6.9099   -4.7139    0.0000 C   0  0  1  0  0  0  0  0  0  0  0  0
    4.3058    1.3570    0.0000 C   0  0  0  0  0  0  0  0  0  0  0  0
    5.1867    5.1987    0.0000 C   0  0  2  0  0  0  0  0  0  0  0  0
    4.2771    3.7248    0.0000 C   0  0  1  0  0  0  0  0  0  0  0  0
    4.3064    4.7243    0.0000 C   0  0  1  0  0  0  0  0  0  0  0  0
    6.0439   -3.2139    0.0000 C   0  0  0  0  0  0  0  0  0  0  0  0
    3.7806    0.5059    0.0000 C   0  0  0  0  0  0  0  0  0  0  0  0
    3.3968    3.2504    0.0000 C   0  0  0  0  0  0  0  0  0  0  0  0
    2.9296    1.0311    0.0000 C   0  0  0  0  0  0  0  0  0  0  0  0
    4.6316   -0.0193    0.0000 C   0  0  0  0  0  0  0  0  0  0  0  0
   10.2152    0.2888    0.0000 H   0  0  0  0  0  0  0  0  0  0  0  0
    7.6550    1.6935    0.0000 H   0  0  0  0  0  0  0  0  0  0  0  0
   10.4080   -2.5396    0.0000 H   0  0  0  0  0  0  0  0  0  0  0  0
    7.9983   -1.5765    0.0000 H   0  0  0  0  0  0  0  0  0  0  0  0
    8.3921   -2.2709    0.0000 H   0  0  0  0  0  0  0  0  0  0  0  0
   10.0912    0.7500    0.0000 H   0  0  0  0  0  0  0  0  0  0  0  0
    9.6900    1.4387    0.0000 H   0  0  0  0  0  0  0  0  0  0  0  0
    5.9957    1.4223    0.0000 H   0  0  0  0  0  0  0  0  0  0  0  0
    9.1480    1.6640    0.0000 H   0  0  0  0  0  0  0  0  0  0  0  0
    6.2708   -0.7711    0.0000 H   0  0  0  0  0  0  0  0  0  0  0  0
    7.0602   -1.0257    0.0000 H   0  0  0  0  0  0  0  0  0  0  0  0
   10.0455   -2.5229    0.0000 H   0  0  0  0  0  0  0  0  0  0  0  0
    5.7578    0.7556    0.0000 H   0  0  0  0  0  0  0  0  0  0  0  0
    5.7610   -0.0738    0.0000 H   0  0  0  0  0  0  0  0  0  0  0  0
   11.7087    0.4031    0.0000 H   0  0  0  0  0  0  0  0  0  0  0  0
   10.9106    0.3847    0.0000 H   0  0  0  0  0  0  0  0  0  0  0  0
    7.5036   -1.0198    0.0000 H   0  0  0  0  0  0  0  0  0  0  0  0
    7.5834   -1.8930    0.0000 H   0  0  0  0  0  0  0  0  0  0  0  0
    8.4566   -1.8133    0.0000 H   0  0  0  0  0  0  0  0  0  0  0  0
    6.8302   -0.8826    0.0000 H   0  0  0  0  0  0  0  0  0  0  0  0
    7.2038   -1.6758    0.0000 H   0  0  0  0  0  0  0  0  0  0  0  0
    7.9970   -1.3022    0.0000 H   0  0  0  0  0  0  0  0  0  0  0  0
   11.0044    0.3590    0.0000 H   0  0  0  0  0  0  0  0  0  0  0  0
   10.3773    0.9718    0.0000 H   0  0  0  0  0  0  0  0  0  0  0  0
    9.7645    0.3447    0.0000 H   0  0  0  0  0  0  0  0  0  0  0  0
   12.8170   -1.3745    0.0000 H   0  0  0  0  0  0  0  0  0  0  0  0
   12.8826   -0.7037    0.0000 H   0  0  0  0  0  0  0  0  0  0  0  0
   12.4729   -0.0186    0.0000 H   0  0  0  0  0  0  0  0  0  0  0  0
   11.3086   -3.4118    0.0000 H   0  0  0  0  0  0  0  0  0  0  0  0
   12.1556   -3.6387    0.0000 H   0  0  0  0  0  0  0  0  0  0  0  0
   12.3825   -2.7918    0.0000 H   0  0  0  0  0  0  0  0  0  0  0  0
   10.3086   -2.7918    0.0000 H   0  0  0  0  0  0  0  0  0  0  0  0
   10.5356   -3.6387    0.0000 H   0  0  0  0  0  0  0  0  0  0  0  0
   11.3825   -3.4118    0.0000 H   0  0  0  0  0  0  0  0  0  0  0  0
    9.1441    2.6640    0.0000 H   0  0  0  0  0  0  0  0  0  0  0  0
    5.9560    2.7857    0.0000 H   0  0  0  0  0  0  0  0  0  0  0  0
    5.2544    2.4076    0.0000 H   0  0  0  0  0  0  0  0  0  0  0  0
    7.8115    1.5002    0.0000 H   0  0  0  0  0  0  0  0  0  0  0  0
    8.4494    2.1018    0.0000 H   0  0  0  0  0  0  0  0  0  0  0  0
    7.8478    2.7397    0.0000 H   0  0  0  0  0  0  0  0  0  0  0  0
    9.1789   -4.0239    0.0000 H   0  0  0  0  0  0  0  0  0  0  0  0
   13.6875   -1.8688    0.0000 H   0  0  0  0  0  0  0  0  0  0  0  0
    6.5542    3.9681    0.0000 H   0  0  0  0  0  0  0  0  0  0  0  0
    5.5995    0.7818    0.0000 H   0  0  0  0  0  0  0  0  0  0  0  0
    8.6420   -5.3339    0.0000 H   0  0  0  0  0  0  0  0  0  0  0  0
    7.2390   -5.5239    0.0000 H   0  0  0  0  0  0  0  0  0  0  0  0
    6.0559    5.2933    0.0000 H   0  0  0  0  0  0  0  0  0  0  0  0
    6.9099   -3.0939    0.0000 H   0  0  0  0  0  0  0  0  0  0  0  0
    6.3730   -4.4039    0.0000 H   0  0  0  0  0  0  0  0  0  0  0  0
    4.0117    1.9028    0.0000 H   0  0  0  0  0  0  0  0  0  0  0  0
    4.6591    5.5243    0.0000 H   0  0  0  0  0  0  0  0  0  0  0  0
    9.5080   -5.8339    0.0000 H   0  0  0  0  0  0  0  0  0  0  0  0
    4.2589    3.1050    0.0000 H   0  0  0  0  0  0  0  0  0  0  0  0
    3.7606    4.4302    0.0000 H   0  0  0  0  0  0  0  0  0  0  0  0
    6.4424   -2.7390    0.0000 H   0  0  0  0  0  0  0  0  0  0  0  0
    5.6453   -2.7390    0.0000 H   0  0  0  0  0  0  0  0  0  0  0  0
    7.2390   -6.5239    0.0000 H   0  0  0  0  0  0  0  0  0  0  0  0
    6.9362    5.7677    0.0000 H   0  0  0  0  0  0  0  0  0  0  0  0
    6.0439   -5.8339    0.0000 H   0  0  0  0  0  0  0  0  0  0  0  0
    2.9845    2.7873    0.0000 H   0  0  0  0  0  0  0  0  0  0  0  0
    3.7812    2.7639    0.0000 H   0  0  0  0  0  0  0  0  0  0  0  0
    4.6884    6.5239    0.0000 H   0  0  0  0  0  0  0  0  0  0  0  0
    3.2552    1.5587    0.0000 H   0  0  0  0  0  0  0  0  0  0  0  0
    2.4020    1.3567    0.0000 H   0  0  0  0  0  0  0  0  0  0  0  0
    2.6040    0.5035    0.0000 H   0  0  0  0  0  0  0  0  0  0  0  0
    4.3060   -0.5469    0.0000 H   0  0  0  0  0  0  0  0  0  0  0  0
    5.1592   -0.3449    0.0000 H   0  0  0  0  0  0  0  0  0  0  0  0
    4.9572    0.5083    0.0000 H   0  0  0  0  0  0  0  0  0  0  0  0
    3.4736    5.8692    0.0000 H   0  0  0  0  0  0  0  0  0  0  0  0
    4.6409   -3.4039    0.0000 H   0  0  0  0  0  0  0  0  0  0  0  0
    2.6357   -0.3269    0.0000 H   0  0  0  0  0  0  0  0  0  0  0  0
    2.0000    3.4814    0.0000 H   0  0  0  0  0  0  0  0  0  0  0  0
 27  1  1  1  0  0  0
 41  1  1  1  0  0  0
 25  2  1  6  0  0  0
  2 92  1  0  0  0  0
 35  3  1  6  0  0  0
 42  3  1  6  0  0  0
 34  4  1  6  0  0  0
  4 99  1  0  0  0  0
  5 41  1  0  0  0  0
  5 47  1  0  0  0  0
  6 42  1  0  0  0  0
  6 51  1  0  0  0  0
 44  7  1  6  0  0  0
  7109  1  0  0  0  0
 45  8  1  1  0  0  0
  8114  1  0  0  0  0
 46  9  1  1  0  0  0
  9115  1  0  0  0  0
 48 10  1  6  0  0  0
 10116  1  0  0  0  0
 50 11  1  6  0  0  0
 11119  1  0  0  0  0
 52 12  1  1  0  0  0
 12126  1  0  0  0  0
 13 53  1  0  0  0  0
 13127  1  0  0  0  0
 14 54  1  0  0  0  0
 14128  1  0  0  0  0
 15 55  1  0  0  0  0
 15129  1  0  0  0  0
 16 17  1  0  0  0  0
 16 18  1  0  0  0  0
 16 22  1  0  0  0  0
 16 31  1  6  0  0  0
 17 20  1  0  0  0  0
 17 26  1  0  0  0  0
 17 32  1  1  0  0  0
 18 19  1  0  0  0  0
 18 23  1  0  0  0  0
 18 58  1  1  0  0  0
 19 21  1  0  0  0  0
 19 30  1  0  0  0  0
 19 33  1  6  0  0  0
 20 24  1  0  0  0  0
 20 25  1  0  0  0  0
 20 59  1  6  0  0  0
 21 27  1  0  0  0  0
 21 28  1  0  0  0  0
 21 60  1  1  0  0  0
 22 27  1  0  0  0  0
 22 61  1  0  0  0  0
 22 62  1  0  0  0  0
 23 25  1  0  0  0  0
 23 63  1  0  0  0  0
 23 64  1  0  0  0  0
 24 29  1  0  0  0  0
 24 35  1  0  0  0  0
 24 65  1  1  0  0  0
 25 66  1  0  0  0  0
 26 29  1  0  0  0  0
 26 67  1  0  0  0  0
 26 68  1  0  0  0  0
 27 69  1  0  0  0  0
 28 34  1  0  0  0  0
 28 37  1  0  0  0  0
 28 38  1  0  0  0  0
 29 70  1  0  0  0  0
 29 71  1  0  0  0  0
 30 36  1  0  0  0  0
 30 72  1  0  0  0  0
 30 73  1  0  0  0  0
 31 74  1  0  0  0  0
 31 75  1  0  0  0  0
 31 76  1  0  0  0  0
 32 77  1  0  0  0  0
 32 78  1  0  0  0  0
 32 79  1  0  0  0  0
 33 80  1  0  0  0  0
 33 81  1  0  0  0  0
 33 82  1  0  0  0  0
 34 36  1  0  0  0  0
 34 83  1  0  0  0  0
 35 39  1  0  0  0  0
 35 40  1  0  0  0  0
 36 84  1  0  0  0  0
 36 85  1  0  0  0  0
 37 86  1  0  0  0  0
 37 87  1  0  0  0  0
 37 88  1  0  0  0  0
 38 89  1  0  0  0  0
 38 90  1  0  0  0  0
 38 91  1  0  0  0  0
 39 43  1  0  0  0  0
 39 93  1  0  0  0  0
 39 94  1  0  0  0  0
 40 95  1  0  0  0  0
 40 96  1  0  0  0  0
 40 97  1  0  0  0  0
 41 44  1  0  0  0  0
 41 98  1  0  0  0  0
 42 46  1  0  0  0  0
 42100  1  0  0  0  0
 43 49  2  0  0  0  0
 43101  1  0  0  0  0
 44 45  1  0  0  0  0
 44102  1  0  0  0  0
 45 48  1  0  0  0  0
 45103  1  0  0  0  0
 46 50  1  0  0  0  0
 46104  1  0  0  0  0
 47 48  1  0  0  0  0
 47 53  1  1  0  0  0
 47105  1  0  0  0  0
 48106  1  0  0  0  0
 49 54  1  0  0  0  0
 49107  1  0  0  0  0
 50 52  1  0  0  0  0
 50108  1  0  0  0  0
 51 52  1  0  0  0  0
 51 55  1  6  0  0  0
 51110  1  0  0  0  0
 52111  1  0  0  0  0
 53112  1  0  0  0  0
 53113  1  0  0  0  0
 54 56  1  0  0  0  0
 54 57  1  0  0  0  0
 55117  1  0  0  0  0
 55118  1  0  0  0  0
 56120  1  0  0  0  0
 56121  1  0  0  0  0
 56122  1  0  0  0  0
 57123  1  0  0  0  0
 57124  1  0  0  0  0
 57125  1  0  0  0  0
M  END
> <PUBCHEM_COMPOUND_CID>
10676870

> <PUBCHEM_COMPOUND_CANONICALIZED>
1

> <PUBCHEM_CACTVS_COMPLEXITY>
1450

> <PUBCHEM_CACTVS_HBOND_ACCEPTOR>
15

> <PUBCHEM_CACTVS_HBOND_DONOR>
11

> <PUBCHEM_CACTVS_ROTATABLE_BOND>
10

> <PUBCHEM_CACTVS_SUBSKEYS>
AAADcfB8PAAAAAAAAAAAAAAAAAAAAYAAAAA0aMECAAAAAGDAAAAAGgAACAAAD1SwgAMCCAAABgCAACBCAAAAAAAgAAAICAAAAAgRFAIAAQAiUAAFwAAPEAPA4PwPgAAAAAAAAADAAAYAADAAAQAACAAAAA==

> <PUBCHEM_IUPAC_OPENEYE_NAME>
(2R,3R,4S,5S,6R)-2-[[(3S,5R,6S,8R,9R,10R,12R,13R,14R,17S)-3,12-dihydroxy-17-[(E,1S)-5-hydroxy-1,5-dimethyl-1-[(2S,3R,4S,5S,6R)-3,4,5-trihydroxy-6-(hydroxymethyl)tetrahydropyran-2-yl]oxy-hex-3-enyl]-4,4,8,10,14-pentamethyl-2,3,5,6,7,9,11,12,13,15,16,17-dodecahydro-1H-cyclopenta[a]phenanthren-6-yl]oxy]-6-(hydroxymethyl)tetrahydropyran-3,4,5-triol

> <PUBCHEM_IUPAC_CAS_NAME>
(2R,3R,4S,5S,6R)-2-[[(3S,5R,6S,8R,9R,10R,12R,13R,14R,17S)-3,12-dihydroxy-17-[(E,2S)-6-hydroxy-6-methyl-2-[[(2S,3R,4S,5S,6R)-3,4,5-trihydroxy-6-(hydroxymethyl)-2-oxanyl]oxy]hept-4-en-2-yl]-4,4,8,10,14-pentamethyl-2,3,5,6,7,9,11,12,13,15,16,17-dodecahydro-1H-cyclopenta[a]phenanthren-6-yl]oxy]-6-(hydroxymethyl)oxane-3,4,5-triol

> <PUBCHEM_IUPAC_NAME>
(2R,3R,4S,5S,6R)-2-[[(3S,5R,6S,8R,9R,10R,12R,13R,14R,17S)-3,12-dihydroxy-17-[(E,2S)-6-hydroxy-6-methyl-2-[(2S,3R,4S,5S,6R)-3,4,5-trihydroxy-6-(hydroxymethyl)oxan-2-yl]oxyhept-4-en-2-yl]-4,4,8,10,14-pentamethyl-2,3,5,6,7,9,11,12,13,15,16,17-dodecahydro-1H-cyclopenta[a]phenanthren-6-yl]oxy]-6-(hydroxymethyl)oxane-3,4,5-triol

> <PUBCHEM_IUPAC_SYSTEMATIC_NAME>
(2R,3S,4S,5R,6R)-2-(hydroxymethyl)-6-[[(3S,5R,6S,8R,9R,10R,12R,13R,14R,17S)-17-[(E,2S)-2-[(2S,3R,4S,5S,6R)-6-(hydroxymethyl)-3,4,5-tris(oxidanyl)oxan-2-yl]oxy-6-methyl-6-oxidanyl-hept-4-en-2-yl]-4,4,8,10,14-pentamethyl-3,12-bis(oxidanyl)-2,3,5,6,7,9,11,12,13,15,16,17-dodecahydro-1H-cyclopenta[a]phenanthren-6-yl]oxy]oxane-3,4,5-triol

> <PUBCHEM_IUPAC_TRADITIONAL_NAME>
(2R,3R,4S,5S,6R)-2-[[(3S,5R,6S,8R,9R,10R,12R,13R,14R,17S)-3,12-dihydroxy-17-[(E,1S)-5-hydroxy-1,5-dimethyl-1-[(2S,3R,4S,5S,6R)-3,4,5-trihydroxy-6-methylol-tetrahydropyran-2-yl]oxy-hex-3-enyl]-4,4,8,10,14-pentamethyl-2,3,5,6,7,9,11,12,13,15,16,17-dodecahydro-1H-cyclopenta[a]phenanthren-6-yl]oxy]-6-methylol-tetrahydropyran-3,4,5-triol

> <PUBCHEM_IUPAC_INCHI>
InChI=1S/C42H72O15/c1-37(2,53)12-9-13-42(8,57-36-33(52)31(50)29(48)24(19-44)56-36)20-10-15-40(6)27(20)21(45)16-25-39(5)14-11-26(46)38(3,4)34(39)22(17-41(25,40)7)54-35-32(51)30(49)28(47)23(18-43)55-35/h9,12,20-36,43-53H,10-11,13-19H2,1-8H3/b12-9+/t20-,21+,22-,23+,24+,25+,26-,27-,28+,29+,30-,31-,32+,33+,34-,35+,36-,39+,40+,41+,42-/m0/s1

> <PUBCHEM_IUPAC_INCHIKEY>
HMCPMOZTKYWJSJ-YAYYJKCKSA-N

> <PUBCHEM_XLOGP3_AA>
1

> <PUBCHEM_EXACT_MASS>
816.487

> <PUBCHEM_MOLECULAR_FORMULA>
C42H72O15

> <PUBCHEM_MOLECULAR_WEIGHT>
817.023

> <PUBCHEM_OPENEYE_CAN_SMILES>
CC1(C(CCC2(C1C(CC3(C2CC(C4C3(CCC4C(C)(CC=CC(C)(C)O)OC5C(C(C(C(O5)CO)O)O)O)C)O)C)OC6C(C(C(C(O6)CO)O)O)O)C)O)C

> <PUBCHEM_OPENEYE_ISO_SMILES>
C[C@]12CC[C@@H](C([C@@H]1[C@H](C[C@@]3([C@@H]2C[C@H]([C@H]4[C@]3(CC[C@@H]4[C@](C)(C/C=C/C(C)(C)O)O[C@H]5[C@@H]([C@H]([C@@H]([C@H](O5)CO)O)O)O)C)O)C)O[C@H]6[C@@H]([C@H]([C@@H]([C@H](O6)CO)O)O)O)(C)C)O

> <PUBCHEM_CACTVS_TPSA>
259

> <PUBCHEM_MONOISOTOPIC_WEIGHT>
816.487

> <PUBCHEM_TOTAL_CHARGE>
0

> <PUBCHEM_HEAVY_ATOM_COUNT>
57

> <PUBCHEM_ATOM_DEF_STEREO_COUNT>
21

> <PUBCHEM_ATOM_UDEF_STEREO_COUNT>
0

> <PUBCHEM_BOND_DEF_STEREO_COUNT>
1

> <PUBCHEM_BOND_UDEF_STEREO_COUNT>
0

> <PUBCHEM_ISOTOPIC_ATOM_COUNT>
0

> <PUBCHEM_COMPONENT_COUNT>
1

> <PUBCHEM_CACTVS_TAUTO_COUNT>
1

> <PUBCHEM_COORDINATE_TYPE>
1
5
255

> <PUBCHEM_BONDANNOTATIONS>
27  1  5
41  1  5
48  10  6
50  11  6
52  12  5
16  31  6
17  32  5
18  58  5
19  33  6
25  2  6
20  59  6
21  60  5
24  65  5
35  3  6
42  3  6
34  4  6
47  53  5
51  55  6
44  7  6
45  8  5
46  9  5

$$$$
