101130267
  -OEChem-12071809292D

165172  0     1  0  0  0  0  0999 V2000
    5.1643    2.1344    0.0000 O   0  0  0  0  0  0  0  0  0  0  0  0
    6.8671   -4.0558    0.0000 O   0  0  0  0  0  0  0  0  0  0  0  0
    5.7604    4.5972    0.0000 O   0  0  0  0  0  0  0  0  0  0  0  0
    5.1350   -4.0558    0.0000 O   0  0  0  0  0  0  0  0  0  0  0  0
    7.0451    5.7589    0.0000 O   0  0  0  0  0  0  0  0  0  0  0  0
    6.8671   -6.0558    0.0000 O   0  0  0  0  0  0  0  0  0  0  0  0
    4.4190    6.0806    0.0000 O   0  0  0  0  0  0  0  0  0  0  0  0
    5.1350   -7.0558    0.0000 O   0  0  0  0  0  0  0  0  0  0  0  0
    5.0329    7.9840    0.0000 O   0  0  0  0  0  0  0  0  0  0  0  0
    3.4030   -6.0558    0.0000 O   0  0  0  0  0  0  0  0  0  0  0  0
    6.9884    8.4040    0.0000 O   0  0  0  0  0  0  0  0  0  0  0  0
    8.6368    7.8723    0.0000 O   0  0  0  0  0  0  0  0  0  0  0  0
    2.5369   -4.5558    0.0000 O   0  0  0  0  0  0  0  0  0  0  0  0
    6.0010   -7.5558    0.0000 O   0  0  0  0  0  0  0  0  0  0  0  0
    8.5991   -7.0558    0.0000 O   0  0  0  0  0  0  0  0  0  0  0  0
    8.5991   -9.0558    0.0000 O   0  0  0  0  0  0  0  0  0  0  0  0
   10.2852    7.3406    0.0000 O   0  0  0  0  0  0  0  0  0  0  0  0
    6.8671  -10.0558    0.0000 O   0  0  0  0  0  0  0  0  0  0  0  0
    9.2508    9.7757    0.0000 O   0  0  0  0  0  0  0  0  0  0  0  0
   11.2062   10.1957    0.0000 O   0  0  0  0  0  0  0  0  0  0  0  0
   12.5476    8.7122    0.0000 O   0  0  0  0  0  0  0  0  0  0  0  0
   12.9113    7.0188    0.0000 O   0  0  0  0  0  0  0  0  0  0  0  0
    7.7681    0.6445    0.0000 C   0  0  1  0  0  0  0  0  0  0  0  0
    7.7643    1.6444    0.0000 C   0  0  1  0  0  0  0  0  0  0  0  0
    6.9040    0.1411    0.0000 C   0  0  1  0  0  0  0  0  0  0  0  0
    6.8920   -0.9004    0.0000 C   0  0  2  0  0  0  0  0  0  0  0  0
    6.8963    2.1411    0.0000 C   0  0  1  0  0  0  0  0  0  0  0  0
    7.7920   -1.4247    0.0000 C   0  0  1  0  0  0  0  0  0  0  0  0
    8.6801    0.1411    0.0000 C   0  0  0  0  0  0  0  0  0  0  0  0
    7.1018    3.1137    0.0000 C   0  0  2  0  0  0  0  0  0  0  0  0
    6.0361    0.6378    0.0000 C   0  0  0  0  0  0  0  0  0  0  0  0
    6.0322    1.6378    0.0000 C   0  0  1  0  0  0  0  0  0  0  0  0
    8.4987    2.3144    0.0000 C   0  0  0  0  0  0  0  0  0  0  0  0
    8.6921   -0.9004    0.0000 C   0  0  0  0  0  0  0  0  0  0  0  0
    7.8046   -2.5096    0.0000 C   0  0  0  0  0  0  0  0  0  0  0  0
    8.0901    3.2206    0.0000 C   0  0  0  0  0  0  0  0  0  0  0  0
    5.9421   -1.4247    0.0000 C   0  0  0  0  0  0  0  0  0  0  0  0
    8.7522    0.8219    0.0000 C   0  0  0  0  0  0  0  0  0  0  0  0
    8.7497    1.4746    0.0000 C   0  0  0  0  0  0  0  0  0  0  0  0
    6.0279   -0.3971    0.0000 C   0  0  0  0  0  0  0  0  0  0  0  0
    6.8671   -3.0558    0.0000 C   0  0  2  0  0  0  0  0  0  0  0  0
    6.4311    3.8554    0.0000 C   0  0  2  0  0  0  0  0  0  0  0  0
    5.9295   -2.5096    0.0000 C   0  0  0  0  0  0  0  0  0  0  0  0
    8.8046   -2.5019    0.0000 C   0  0  0  0  0  0  0  0  0  0  0  0
    8.3113   -3.3718    0.0000 C   0  0  0  0  0  0  0  0  0  0  0  0
    7.1728    4.5262    0.0000 C   0  0  0  0  0  0  0  0  0  0  0  0
    5.6894    3.1847    0.0000 C   0  0  0  0  0  0  0  0  0  0  0  0
    8.1245    4.2192    0.0000 C   0  0  0  0  0  0  0  0  0  0  0  0
    6.0010   -4.5558    0.0000 C   0  0  2  0  0  0  0  0  0  0  0  0
    6.0674    5.5489    0.0000 C   0  0  2  0  0  0  0  0  0  0  0  0
    6.0010   -5.5558    0.0000 C   0  0  1  0  0  0  0  0  0  0  0  0
    5.3966    6.2906    0.0000 C   0  0  1  0  0  0  0  0  0  0  0  0
    8.8662    4.8899    0.0000 C   0  0  0  0  0  0  0  0  0  0  0  0
    5.1350   -6.0558    0.0000 C   0  0  2  0  0  0  0  0  0  0  0  0
    5.7036    7.2423    0.0000 C   0  0  2  0  0  0  0  0  0  0  0  0
    4.2690   -4.5558    0.0000 C   0  0  1  0  0  0  0  0  0  0  0  0
    7.3521    6.7106    0.0000 C   0  0  1  0  0  0  0  0  0  0  0  0
    4.2690   -5.5558    0.0000 C   0  0  1  0  0  0  0  0  0  0  0  0
    6.6814    7.4523    0.0000 C   0  0  1  0  0  0  0  0  0  0  0  0
    9.8179    4.5829    0.0000 C   0  0  0  0  0  0  0  0  0  0  0  0
    3.4030   -4.0558    0.0000 C   0  0  0  0  0  0  0  0  0  0  0  0
    8.3298    6.9206    0.0000 C   0  0  0  0  0  0  0  0  0  0  0  0
    6.8671   -7.0558    0.0000 C   0  0  2  0  0  0  0  0  0  0  0  0
   10.5597    5.2536    0.0000 C   0  0  0  0  0  0  0  0  0  0  0  0
   10.0279    3.6052    0.0000 C   0  0  0  0  0  0  0  0  0  0  0  0
    7.7331   -7.5558    0.0000 C   0  0  1  0  0  0  0  0  0  0  0  0
    7.7331   -8.5558    0.0000 C   0  0  2  0  0  0  0  0  0  0  0  0
    6.0010   -8.5558    0.0000 C   0  0  0  0  0  0  0  0  0  0  0  0
    6.8671   -9.0558    0.0000 C   0  0  1  0  0  0  0  0  0  0  0  0
    9.6145    8.0823    0.0000 C   0  0  2  0  0  0  0  0  0  0  0  0
    9.9215    9.0340    0.0000 C   0  0  1  0  0  0  0  0  0  0  0  0
   10.8992    9.2440    0.0000 C   0  0  2  0  0  0  0  0  0  0  0  0
   11.2629    7.5505    0.0000 C   0  0  1  0  0  0  0  0  0  0  0  0
   11.5699    8.5022    0.0000 C   0  0  1  0  0  0  0  0  0  0  0  0
   11.9336    6.8088    0.0000 C   0  0  0  0  0  0  0  0  0  0  0  0
    7.6385   -0.2867    0.0000 H   0  0  0  0  0  0  0  0  0  0  0  0
    6.2074    2.6390    0.0000 H   0  0  0  0  0  0  0  0  0  0  0  0
    8.5314   -1.8440    0.0000 H   0  0  0  0  0  0  0  0  0  0  0  0
    9.2921    0.0421    0.0000 H   0  0  0  0  0  0  0  0  0  0  0  0
    8.8824    0.7272    0.0000 H   0  0  0  0  0  0  0  0  0  0  0  0
    7.4044    3.9080    0.0000 H   0  0  0  0  0  0  0  0  0  0  0  0
    5.4251    0.7431    0.0000 H   0  0  0  0  0  0  0  0  0  0  0  0
    5.8263    0.0544    0.0000 H   0  0  0  0  0  0  0  0  0  0  0  0
    5.4965    1.3257    0.0000 H   0  0  0  0  0  0  0  0  0  0  0  0
    8.8661    1.8149    0.0000 H   0  0  0  0  0  0  0  0  0  0  0  0
    9.0340    2.6272    0.0000 H   0  0  0  0  0  0  0  0  0  0  0  0
    8.9079   -1.4817    0.0000 H   0  0  0  0  0  0  0  0  0  0  0  0
    9.3017   -0.7873    0.0000 H   0  0  0  0  0  0  0  0  0  0  0  0
    8.6790    3.4146    0.0000 H   0  0  0  0  0  0  0  0  0  0  0  0
    7.9590    3.8266    0.0000 H   0  0  0  0  0  0  0  0  0  0  0  0
    5.7398   -0.8387    0.0000 H   0  0  0  0  0  0  0  0  0  0  0  0
    5.3300   -1.5238    0.0000 H   0  0  0  0  0  0  0  0  0  0  0  0
    8.8623    0.2117    0.0000 H   0  0  0  0  0  0  0  0  0  0  0  0
    9.3624    0.9319    0.0000 H   0  0  0  0  0  0  0  0  0  0  0  0
    8.6422    1.4321    0.0000 H   0  0  0  0  0  0  0  0  0  0  0  0
    8.6444    0.8636    0.0000 H   0  0  0  0  0  0  0  0  0  0  0  0
    9.3607    1.3693    0.0000 H   0  0  0  0  0  0  0  0  0  0  0  0
    8.8550    2.0856    0.0000 H   0  0  0  0  0  0  0  0  0  0  0  0
    6.3400    0.1386    0.0000 H   0  0  0  0  0  0  0  0  0  0  0  0
    5.4922   -0.0850    0.0000 H   0  0  0  0  0  0  0  0  0  0  0  0
    5.7158   -0.9328    0.0000 H   0  0  0  0  0  0  0  0  0  0  0  0
    7.4046   -3.3647    0.0000 H   0  0  0  0  0  0  0  0  0  0  0  0
    5.3199   -2.3965    0.0000 H   0  0  0  0  0  0  0  0  0  0  0  0
    5.7137   -3.0909    0.0000 H   0  0  0  0  0  0  0  0  0  0  0  0
    8.8094   -3.1219    0.0000 H   0  0  0  0  0  0  0  0  0  0  0  0
    9.4246   -2.4972    0.0000 H   0  0  0  0  0  0  0  0  0  0  0  0
    8.7998   -1.8820    0.0000 H   0  0  0  0  0  0  0  0  0  0  0  0
    7.7767   -3.6859    0.0000 H   0  0  0  0  0  0  0  0  0  0  0  0
    8.6254   -3.9063    0.0000 H   0  0  0  0  0  0  0  0  0  0  0  0
    8.8458   -3.0577    0.0000 H   0  0  0  0  0  0  0  0  0  0  0  0
    4.6286    1.8224    0.0000 H   0  0  0  0  0  0  0  0  0  0  0  0
    7.4627    5.0742    0.0000 H   0  0  0  0  0  0  0  0  0  0  0  0
    6.6834    4.9068    0.0000 H   0  0  0  0  0  0  0  0  0  0  0  0
    5.2735    3.6446    0.0000 H   0  0  0  0  0  0  0  0  0  0  0  0
    5.2295    2.7689    0.0000 H   0  0  0  0  0  0  0  0  0  0  0  0
    6.1052    2.7249    0.0000 H   0  0  0  0  0  0  0  0  0  0  0  0
    7.8346    3.6711    0.0000 H   0  0  0  0  0  0  0  0  0  0  0  0
    8.6139    3.8385    0.0000 H   0  0  0  0  0  0  0  0  0  0  0  0
    6.0010   -3.9358    0.0000 H   0  0  0  0  0  0  0  0  0  0  0  0
    5.4612    5.4187    0.0000 H   0  0  0  0  0  0  0  0  0  0  0  0
    6.0010   -6.1758    0.0000 H   0  0  0  0  0  0  0  0  0  0  0  0
    4.9808    6.7505    0.0000 H   0  0  0  0  0  0  0  0  0  0  0  0
    8.7360    5.4960    0.0000 H   0  0  0  0  0  0  0  0  0  0  0  0
    4.5981   -6.3658    0.0000 H   0  0  0  0  0  0  0  0  0  0  0  0
    5.8940    7.8324    0.0000 H   0  0  0  0  0  0  0  0  0  0  0  0
    4.2690   -3.9358    0.0000 H   0  0  0  0  0  0  0  0  0  0  0  0
    7.7679    6.2507    0.0000 H   0  0  0  0  0  0  0  0  0  0  0  0
    3.7320   -5.2458    0.0000 H   0  0  0  0  0  0  0  0  0  0  0  0
    7.2875    7.5825    0.0000 H   0  0  0  0  0  0  0  0  0  0  0  0
    4.0031    6.5405    0.0000 H   0  0  0  0  0  0  0  0  0  0  0  0
    3.8015   -3.5808    0.0000 H   0  0  0  0  0  0  0  0  0  0  0  0
    3.0044   -3.5808    0.0000 H   0  0  0  0  0  0  0  0  0  0  0  0
    8.3527    6.3010    0.0000 H   0  0  0  0  0  0  0  0  0  0  0  0
    8.9439    6.8356    0.0000 H   0  0  0  0  0  0  0  0  0  0  0  0
    7.4040   -6.7458    0.0000 H   0  0  0  0  0  0  0  0  0  0  0  0
    4.5981   -7.3658    0.0000 H   0  0  0  0  0  0  0  0  0  0  0  0
    5.2233    8.5741    0.0000 H   0  0  0  0  0  0  0  0  0  0  0  0
    9.4218    3.4750    0.0000 H   0  0  0  0  0  0  0  0  0  0  0  0
   10.1581    2.9990    0.0000 H   0  0  0  0  0  0  0  0  0  0  0  0
   10.6341    3.7354    0.0000 H   0  0  0  0  0  0  0  0  0  0  0  0
   10.9755    4.7937    0.0000 H   0  0  0  0  0  0  0  0  0  0  0  0
   11.0195    5.6694    0.0000 H   0  0  0  0  0  0  0  0  0  0  0  0
   10.1438    5.7134    0.0000 H   0  0  0  0  0  0  0  0  0  0  0  0
    3.4030   -6.6758    0.0000 H   0  0  0  0  0  0  0  0  0  0  0  0
    6.5725    8.8639    0.0000 H   0  0  0  0  0  0  0  0  0  0  0  0
    8.2700   -7.8658    0.0000 H   0  0  0  0  0  0  0  0  0  0  0  0
    2.0000   -4.2458    0.0000 H   0  0  0  0  0  0  0  0  0  0  0  0
    7.7331   -9.1758    0.0000 H   0  0  0  0  0  0  0  0  0  0  0  0
    5.3905   -8.4481    0.0000 H   0  0  0  0  0  0  0  0  0  0  0  0
    5.7890   -9.1384    0.0000 H   0  0  0  0  0  0  0  0  0  0  0  0
    6.3301   -9.3658    0.0000 H   0  0  0  0  0  0  0  0  0  0  0  0
    9.1986    8.5421    0.0000 H   0  0  0  0  0  0  0  0  0  0  0  0
    9.1360   -7.3658    0.0000 H   0  0  0  0  0  0  0  0  0  0  0  0
   10.1118    9.6240    0.0000 H   0  0  0  0  0  0  0  0  0  0  0  0
    8.5991   -9.6758    0.0000 H   0  0  0  0  0  0  0  0  0  0  0  0
   11.5053    9.3742    0.0000 H   0  0  0  0  0  0  0  0  0  0  0  0
    6.3301  -10.3658    0.0000 H   0  0  0  0  0  0  0  0  0  0  0  0
   11.0725    6.9605    0.0000 H   0  0  0  0  0  0  0  0  0  0  0  0
   11.9857    8.0424    0.0000 H   0  0  0  0  0  0  0  0  0  0  0  0
    9.4411   10.3658    0.0000 H   0  0  0  0  0  0  0  0  0  0  0  0
   11.4085    6.4792    0.0000 H   0  0  0  0  0  0  0  0  0  0  0  0
   12.1671    6.2344    0.0000 H   0  0  0  0  0  0  0  0  0  0  0  0
   11.8123   10.3259    0.0000 H   0  0  0  0  0  0  0  0  0  0  0  0
   12.7379    9.3023    0.0000 H   0  0  0  0  0  0  0  0  0  0  0  0
   13.3271    6.5589    0.0000 H   0  0  0  0  0  0  0  0  0  0  0  0
 32  1  1  1  0  0  0
  1111  1  0  0  0  0
 41  2  1  1  0  0  0
 49  2  1  1  0  0  0
 42  3  1  1  0  0  0
 50  3  1  1  0  0  0
  4 49  1  0  0  0  0
  4 56  1  0  0  0  0
  5 50  1  0  0  0  0
  5 57  1  0  0  0  0
 51  6  1  6  0  0  0
 63  6  1  1  0  0  0
 52  7  1  6  0  0  0
  7130  1  0  0  0  0
 54  8  1  1  0  0  0
  8136  1  0  0  0  0
 55  9  1  1  0  0  0
  9137  1  0  0  0  0
 58 10  1  6  0  0  0
 10144  1  0  0  0  0
 59 11  1  6  0  0  0
 11145  1  0  0  0  0
 12 62  1  0  0  0  0
 70 12  1  1  0  0  0
 13 61  1  0  0  0  0
 13147  1  0  0  0  0
 14 63  1  0  0  0  0
 14 68  1  0  0  0  0
 66 15  1  6  0  0  0
 15153  1  0  0  0  0
 67 16  1  1  0  0  0
 16155  1  0  0  0  0
 17 70  1  0  0  0  0
 17 73  1  0  0  0  0
 69 18  1  6  0  0  0
 18157  1  0  0  0  0
 71 19  1  6  0  0  0
 19160  1  0  0  0  0
 72 20  1  1  0  0  0
 20163  1  0  0  0  0
 74 21  1  6  0  0  0
 21164  1  0  0  0  0
 22 75  1  0  0  0  0
 22165  1  0  0  0  0
 23 24  1  0  0  0  0
 23 25  1  0  0  0  0
 23 29  1  0  0  0  0
 23 38  1  1  0  0  0
 24 27  1  0  0  0  0
 24 33  1  0  0  0  0
 24 39  1  6  0  0  0
 25 26  1  0  0  0  0
 25 31  1  0  0  0  0
 25 76  1  6  0  0  0
 26 28  1  0  0  0  0
 26 37  1  0  0  0  0
 26 40  1  1  0  0  0
 27 30  1  0  0  0  0
 27 32  1  0  0  0  0
 27 77  1  1  0  0  0
 28 34  1  0  0  0  0
 28 35  1  0  0  0  0
 28 78  1  6  0  0  0
 29 34  1  0  0  0  0
 29 79  1  0  0  0  0
 29 80  1  0  0  0  0
 30 36  1  0  0  0  0
 30 42  1  0  0  0  0
 30 81  1  6  0  0  0
 31 32  1  0  0  0  0
 31 82  1  0  0  0  0
 31 83  1  0  0  0  0
 32 84  1  0  0  0  0
 33 36  1  0  0  0  0
 33 85  1  0  0  0  0
 33 86  1  0  0  0  0
 34 87  1  0  0  0  0
 34 88  1  0  0  0  0
 35 41  1  0  0  0  0
 35 44  1  0  0  0  0
 35 45  1  0  0  0  0
 36 89  1  0  0  0  0
 36 90  1  0  0  0  0
 37 43  1  0  0  0  0
 37 91  1  0  0  0  0
 37 92  1  0  0  0  0
 38 93  1  0  0  0  0
 38 94  1  0  0  0  0
 38 95  1  0  0  0  0
 39 96  1  0  0  0  0
 39 97  1  0  0  0  0
 39 98  1  0  0  0  0
 40 99  1  0  0  0  0
 40100  1  0  0  0  0
 40101  1  0  0  0  0
 41 43  1  0  0  0  0
 41102  1  0  0  0  0
 42 46  1  0  0  0  0
 42 47  1  0  0  0  0
 43103  1  0  0  0  0
 43104  1  0  0  0  0
 44105  1  0  0  0  0
 44106  1  0  0  0  0
 44107  1  0  0  0  0
 45108  1  0  0  0  0
 45109  1  0  0  0  0
 45110  1  0  0  0  0
 46 48  1  0  0  0  0
 46112  1  0  0  0  0
 46113  1  0  0  0  0
 47114  1  0  0  0  0
 47115  1  0  0  0  0
 47116  1  0  0  0  0
 48 53  1  0  0  0  0
 48117  1  0  0  0  0
 48118  1  0  0  0  0
 49 51  1  0  0  0  0
 49119  1  0  0  0  0
 50 52  1  0  0  0  0
 50120  1  0  0  0  0
 51 54  1  0  0  0  0
 51121  1  0  0  0  0
 52 55  1  0  0  0  0
 52122  1  0  0  0  0
 53 60  2  0  0  0  0
 53123  1  0  0  0  0
 54 58  1  0  0  0  0
 54124  1  0  0  0  0
 55 59  1  0  0  0  0
 55125  1  0  0  0  0
 56 58  1  0  0  0  0
 56 61  1  1  0  0  0
 56126  1  0  0  0  0
 57 59  1  0  0  0  0
 57 62  1  1  0  0  0
 57127  1  0  0  0  0
 58128  1  0  0  0  0
 59129  1  0  0  0  0
 60 64  1  0  0  0  0
 60 65  1  0  0  0  0
 61131  1  0  0  0  0
 61132  1  0  0  0  0
 62133  1  0  0  0  0
 62134  1  0  0  0  0
 63 66  1  0  0  0  0
 63135  1  0  0  0  0
 64141  1  0  0  0  0
 64142  1  0  0  0  0
 64143  1  0  0  0  0
 65138  1  0  0  0  0
 65139  1  0  0  0  0
 65140  1  0  0  0  0
 66 67  1  0  0  0  0
 66146  1  0  0  0  0
 67 69  1  0  0  0  0
 67148  1  0  0  0  0
 68 69  1  0  0  0  0
 68149  1  0  0  0  0
 68150  1  0  0  0  0
 69151  1  0  0  0  0
 70 71  1  0  0  0  0
 70152  1  0  0  0  0
 71 72  1  0  0  0  0
 71154  1  0  0  0  0
 72 74  1  0  0  0  0
 72156  1  0  0  0  0
 73 74  1  0  0  0  0
 73 75  1  1  0  0  0
 73158  1  0  0  0  0
 74159  1  0  0  0  0
 75161  1  0  0  0  0
 75162  1  0  0  0  0
M  END
> <PUBCHEM_COMPOUND_CID>
101130267

> <PUBCHEM_COMPOUND_CANONICALIZED>
1

> <PUBCHEM_CACTVS_COMPLEXITY>
1950

> <PUBCHEM_CACTVS_HBOND_ACCEPTOR>
22

> <PUBCHEM_CACTVS_HBOND_DONOR>
14

> <PUBCHEM_CACTVS_ROTATABLE_BOND>
15

> <PUBCHEM_CACTVS_SUBSKEYS>
AAADcfB8PgAAAAAAAAAAAAAAAAAAAYAAAAA0aNEiAAAAAGDAAAAAGgAACAAAD1SwgAMCCAAABgCAAiBCAAAAAAAgAAAACAAAAAgREAIAAQAiQAAFgAAPAAPA4PwPgAAAAAAAAADAAAYAADAAAQAACAAAAA==

> <PUBCHEM_IUPAC_OPENEYE_NAME>
(2R,3R,4S,5S,6R)-2-[[(2R,3S,4S,5R,6S)-6-[(1S)-1-[(3S,5R,8R,9R,10R,12R,13R,14R,17S)-3-[(2R,3R,4S,5S,6R)-4,5-dihydroxy-6-(hydroxymethyl)-3-[(2S,3R,4S,5R)-3,4,5-trihydroxytetrahydropyran-2-yl]oxy-tetrahydropyran-2-yl]oxy-12-hydroxy-4,4,8,10,14-pentamethyl-2,3,5,6,7,9,11,12,13,15,16,17-dodecahydro-1H-cyclopenta[a]phenanthren-17-yl]-1,5-dimethyl-hex-4-enoxy]-3,4,5-trihydroxy-tetrahydropyran-2-yl]methoxy]-6-(hydroxymethyl)tetrahydropyran-3,4,5-triol

> <PUBCHEM_IUPAC_CAS_NAME>
(2R,3R,4S,5S,6R)-2-[[(2R,3S,4S,5R,6S)-6-[(2S)-2-[(3S,5R,8R,9R,10R,12R,13R,14R,17S)-3-[[(2R,3R,4S,5S,6R)-4,5-dihydroxy-6-(hydroxymethyl)-3-[[(2S,3R,4S,5R)-3,4,5-trihydroxy-2-oxanyl]oxy]-2-oxanyl]oxy]-12-hydroxy-4,4,8,10,14-pentamethyl-2,3,5,6,7,9,11,12,13,15,16,17-dodecahydro-1H-cyclopenta[a]phenanthren-17-yl]-6-methylhept-5-en-2-yl]oxy-3,4,5-trihydroxy-2-oxanyl]methoxy]-6-(hydroxymethyl)oxane-3,4,5-triol

> <PUBCHEM_IUPAC_NAME>
(2R,3R,4S,5S,6R)-2-[[(2R,3S,4S,5R,6S)-6-[(2S)-2-[(3S,5R,8R,9R,10R,12R,13R,14R,17S)-3-[(2R,3R,4S,5S,6R)-4,5-dihydroxy-6-(hydroxymethyl)-3-[(2S,3R,4S,5R)-3,4,5-trihydroxyoxan-2-yl]oxyoxan-2-yl]oxy-12-hydroxy-4,4,8,10,14-pentamethyl-2,3,5,6,7,9,11,12,13,15,16,17-dodecahydro-1H-cyclopenta[a]phenanthren-17-yl]-6-methylhept-5-en-2-yl]oxy-3,4,5-trihydroxyoxan-2-yl]methoxy]-6-(hydroxymethyl)oxane-3,4,5-triol

> <PUBCHEM_IUPAC_SYSTEMATIC_NAME>
(2R,3S,4S,5R,6R)-2-(hydroxymethyl)-6-[[(2R,3S,4S,5R,6S)-6-[(2S)-2-[(3S,5R,8R,9R,10R,12R,13R,14R,17S)-3-[(2R,3R,4S,5S,6R)-6-(hydroxymethyl)-4,5-bis(oxidanyl)-3-[(2S,3R,4S,5R)-3,4,5-tris(oxidanyl)oxan-2-yl]oxy-oxan-2-yl]oxy-4,4,8,10,14-pentamethyl-12-oxidanyl-2,3,5,6,7,9,11,12,13,15,16,17-dodecahydro-1H-cyclopenta[a]phenanthren-17-yl]-6-methyl-hept-5-en-2-yl]oxy-3,4,5-tris(oxidanyl)oxan-2-yl]methoxy]oxane-3,4,5-triol

> <PUBCHEM_IUPAC_TRADITIONAL_NAME>
(2R,3R,4S,5S,6R)-2-[[(2R,3S,4S,5R,6S)-6-[(1S)-1-[(3S,5R,8R,9R,10R,12R,13R,14R,17S)-3-[(2R,3R,4S,5S,6R)-4,5-dihydroxy-6-methylol-3-[(2S,3R,4S,5R)-3,4,5-trihydroxytetrahydropyran-2-yl]oxy-tetrahydropyran-2-yl]oxy-12-hydroxy-4,4,8,10,14-pentamethyl-2,3,5,6,7,9,11,12,13,15,16,17-dodecahydro-1H-cyclopenta[a]phenanthren-17-yl]-1,5-dimethyl-hex-4-enoxy]-3,4,5-trihydroxy-tetrahydropyran-2-yl]methoxy]-6-methylol-tetrahydropyran-3,4,5-triol

> <PUBCHEM_IUPAC_INCHI>
InChI=1S/C53H90O22/c1-23(2)10-9-14-53(8,75-47-43(67)39(63)37(61)29(72-47)22-69-45-42(66)38(62)35(59)27(19-54)70-45)24-11-16-52(7)33(24)25(56)18-31-50(5)15-13-32(49(3,4)30(50)12-17-51(31,52)6)73-48-44(40(64)36(60)28(20-55)71-48)74-46-41(65)34(58)26(57)21-68-46/h10,24-48,54-67H,9,11-22H2,1-8H3/t24-,25+,26+,27+,28+,29+,30-,31+,32-,33-,34-,35+,36+,37+,38-,39-,40-,41+,42+,43+,44+,45+,46-,47-,48-,50-,51+,52+,53-/m0/s1

> <PUBCHEM_IUPAC_INCHIKEY>
MGEVFIHLEFXNMC-MBOAKDCMSA-N

> <PUBCHEM_XLOGP3_AA>
0.3

> <PUBCHEM_EXACT_MASS>
1078.592

> <PUBCHEM_MOLECULAR_FORMULA>
C53H90O22

> <PUBCHEM_MOLECULAR_WEIGHT>
1079.281

> <PUBCHEM_OPENEYE_CAN_SMILES>
CC(=CCCC(C)(C1CCC2(C1C(CC3C2(CCC4C3(CCC(C4(C)C)OC5C(C(C(C(O5)CO)O)O)OC6C(C(C(CO6)O)O)O)C)C)O)C)OC7C(C(C(C(O7)COC8C(C(C(C(O8)CO)O)O)O)O)O)O)C

> <PUBCHEM_OPENEYE_ISO_SMILES>
CC(=CCC[C@@](C)([C@H]1CC[C@@]2([C@@H]1[C@@H](C[C@H]3[C@]2(CC[C@@H]4[C@@]3(CC[C@@H](C4(C)C)O[C@H]5[C@@H]([C@H]([C@@H]([C@H](O5)CO)O)O)O[C@H]6[C@@H]([C@H]([C@@H](CO6)O)O)O)C)C)O)C)O[C@H]7[C@@H]([C@H]([C@@H]([C@H](O7)CO[C@H]8[C@@H]([C@H]([C@@H]([C@H](O8)CO)O)O)O)O)O)O)C

> <PUBCHEM_CACTVS_TPSA>
357

> <PUBCHEM_MONOISOTOPIC_WEIGHT>
1078.592

> <PUBCHEM_TOTAL_CHARGE>
0

> <PUBCHEM_HEAVY_ATOM_COUNT>
75

> <PUBCHEM_ATOM_DEF_STEREO_COUNT>
29

> <PUBCHEM_ATOM_UDEF_STEREO_COUNT>
0

> <PUBCHEM_BOND_DEF_STEREO_COUNT>
0

> <PUBCHEM_BOND_UDEF_STEREO_COUNT>
0

> <PUBCHEM_ISOTOPIC_ATOM_COUNT>
0

> <PUBCHEM_COMPONENT_COUNT>
1

> <PUBCHEM_CACTVS_TAUTO_COUNT>
1

> <PUBCHEM_COORDINATE_TYPE>
1
5
255

> <PUBCHEM_BONDANNOTATIONS>
32  1  5
58  10  6
59  11  6
70  12  5
66  15  6
67  16  5
69  18  6
71  19  6
41  2  5
49  2  5
72  20  5
74  21  6
23  38  5
24  39  6
25  76  6
26  40  5
27  77  5
28  78  6
42  3  5
50  3  5
30  81  6
56  61  5
57  62  5
51  6  6
63  6  5
52  7  6
73  75  5
54  8  5
55  9  5

$$$$
