5319462
  -OEChem-12071809172D

 52 54  0     1  0  0  0  0  0999 V2000
    5.1350   -0.3845    0.0000 O   0  0  0  0  0  0  0  0  0  0  0  0
    6.8671   -0.3845    0.0000 O   0  0  0  0  0  0  0  0  0  0  0  0
    5.1350   -3.3845    0.0000 O   0  0  0  0  0  0  0  0  0  0  0  0
    3.4030   -2.3845    0.0000 O   0  0  0  0  0  0  0  0  0  0  0  0
    6.8671   -2.3845    0.0000 O   0  0  0  0  0  0  0  0  0  0  0  0
    2.5369   -0.8845    0.0000 O   0  0  0  0  0  0  0  0  0  0  0  0
    5.1208    2.6946    0.0000 O   0  0  0  0  0  0  0  0  0  0  0  0
    8.6158   -0.3701    0.0000 O   0  0  0  0  0  0  0  0  0  0  0  0
    8.6620    3.6296    0.0000 O   0  0  0  0  0  0  0  0  0  0  0  0
   10.3477   -0.3902    0.0000 O   0  0  0  0  0  0  0  0  0  0  0  0
    5.1350   -2.3845    0.0000 C   0  0  1  0  0  0  0  0  0  0  0  0
    4.2690   -1.8845    0.0000 C   0  0  1  0  0  0  0  0  0  0  0  0
    6.0010   -1.8845    0.0000 C   0  0  2  0  0  0  0  0  0  0  0  0
    4.2690   -0.8845    0.0000 C   0  0  1  0  0  0  0  0  0  0  0  0
    6.0010   -0.8845    0.0000 C   0  0  1  0  0  0  0  0  0  0  0  0
    3.4030   -0.3845    0.0000 C   0  0  0  0  0  0  0  0  0  0  0  0
    6.8671    0.6155    0.0000 C   0  0  0  0  0  0  0  0  0  0  0  0
    7.7671    1.1398    0.0000 C   0  0  0  0  0  0  0  0  0  0  0  0
    7.7787    2.1397    0.0000 C   0  0  0  0  0  0  0  0  0  0  0  0
    5.9670    1.1398    0.0000 C   0  0  0  0  0  0  0  0  0  0  0  0
    8.6273    0.6298    0.0000 C   0  0  0  0  0  0  0  0  0  0  0  0
    5.9790    2.1813    0.0000 C   0  0  0  0  0  0  0  0  0  0  0  0
    6.8910    2.6847    0.0000 C   0  0  0  0  0  0  0  0  0  0  0  0
    9.4991    1.1198    0.0000 C   0  0  0  0  0  0  0  0  0  0  0  0
    8.6504    2.6297    0.0000 C   0  0  0  0  0  0  0  0  0  0  0  0
    9.5106    2.1197    0.0000 C   0  0  0  0  0  0  0  0  0  0  0  0
   10.3824    2.6096    0.0000 C   0  0  0  0  0  0  0  0  0  0  0  0
   10.3592    0.6098    0.0000 C   0  0  0  0  0  0  0  0  0  0  0  0
   11.2310    1.0997    0.0000 C   0  0  0  0  0  0  0  0  0  0  0  0
    5.1363    3.6945    0.0000 C   0  0  0  0  0  0  0  0  0  0  0  0
    5.6720   -2.6945    0.0000 H   0  0  0  0  0  0  0  0  0  0  0  0
    4.2690   -2.5045    0.0000 H   0  0  0  0  0  0  0  0  0  0  0  0
    6.5380   -1.5745    0.0000 H   0  0  0  0  0  0  0  0  0  0  0  0
    4.2690   -0.2645    0.0000 H   0  0  0  0  0  0  0  0  0  0  0  0
    6.0010   -0.2645    0.0000 H   0  0  0  0  0  0  0  0  0  0  0  0
    3.8015    0.0904    0.0000 H   0  0  0  0  0  0  0  0  0  0  0  0
    3.0044    0.0904    0.0000 H   0  0  0  0  0  0  0  0  0  0  0  0
    4.5981   -3.6945    0.0000 H   0  0  0  0  0  0  0  0  0  0  0  0
    3.4030   -3.0045    0.0000 H   0  0  0  0  0  0  0  0  0  0  0  0
    6.8671   -3.0045    0.0000 H   0  0  0  0  0  0  0  0  0  0  0  0
    2.0000   -0.5745    0.0000 H   0  0  0  0  0  0  0  0  0  0  0  0
    5.4277    0.8339    0.0000 H   0  0  0  0  0  0  0  0  0  0  0  0
    6.9053    3.3045    0.0000 H   0  0  0  0  0  0  0  0  0  0  0  0
   10.6861    2.0692    0.0000 H   0  0  0  0  0  0  0  0  0  0  0  0
   10.9229    2.9134    0.0000 H   0  0  0  0  0  0  0  0  0  0  0  0
   10.0786    3.1501    0.0000 H   0  0  0  0  0  0  0  0  0  0  0  0
   11.5348    0.5592    0.0000 H   0  0  0  0  0  0  0  0  0  0  0  0
   11.7715    1.4035    0.0000 H   0  0  0  0  0  0  0  0  0  0  0  0
   10.9272    1.6402    0.0000 H   0  0  0  0  0  0  0  0  0  0  0  0
    5.7562    3.6850    0.0000 H   0  0  0  0  0  0  0  0  0  0  0  0
    5.1458    4.3144    0.0000 H   0  0  0  0  0  0  0  0  0  0  0  0
    4.5163    3.7041    0.0000 H   0  0  0  0  0  0  0  0  0  0  0  0
  1 14  1  0  0  0  0
  1 15  1  0  0  0  0
 15  2  1  1  0  0  0
  2 17  1  0  0  0  0
 11  3  1  1  0  0  0
  3 38  1  0  0  0  0
 12  4  1  6  0  0  0
  4 39  1  0  0  0  0
 13  5  1  6  0  0  0
  5 40  1  0  0  0  0
  6 16  1  0  0  0  0
  6 41  1  0  0  0  0
  7 22  1  0  0  0  0
  7 30  1  0  0  0  0
  8 21  2  0  0  0  0
  9 25  2  0  0  0  0
 10 28  2  0  0  0  0
 11 12  1  0  0  0  0
 11 13  1  0  0  0  0
 11 31  1  0  0  0  0
 12 14  1  0  0  0  0
 12 32  1  0  0  0  0
 13 15  1  0  0  0  0
 13 33  1  0  0  0  0
 14 16  1  1  0  0  0
 14 34  1  0  0  0  0
 15 35  1  0  0  0  0
 16 36  1  0  0  0  0
 16 37  1  0  0  0  0
 17 18  1  0  0  0  0
 17 20  2  0  0  0  0
 18 19  2  0  0  0  0
 18 21  1  0  0  0  0
 19 23  1  0  0  0  0
 19 25  1  0  0  0  0
 20 22  1  0  0  0  0
 20 42  1  0  0  0  0
 21 24  1  0  0  0  0
 22 23  2  0  0  0  0
 23 43  1  0  0  0  0
 24 26  2  0  0  0  0
 24 28  1  0  0  0  0
 25 26  1  0  0  0  0
 26 27  1  0  0  0  0
 27 44  1  0  0  0  0
 27 45  1  0  0  0  0
 27 46  1  0  0  0  0
 28 29  1  0  0  0  0
 29 47  1  0  0  0  0
 29 48  1  0  0  0  0
 29 49  1  0  0  0  0
 30 50  1  0  0  0  0
 30 51  1  0  0  0  0
 30 52  1  0  0  0  0
M  END
> <PUBCHEM_COMPOUND_CID>
5319462

> <PUBCHEM_COMPOUND_CANONICALIZED>
1

> <PUBCHEM_CACTVS_COMPLEXITY>
746

> <PUBCHEM_CACTVS_HBOND_ACCEPTOR>
10

> <PUBCHEM_CACTVS_HBOND_DONOR>
4

> <PUBCHEM_CACTVS_ROTATABLE_BOND>
5

> <PUBCHEM_CACTVS_SUBSKEYS>
AAADceB4PAAAAAAAAAAAAAAAAAAAAAAAAAA0QIAAAAAAAACBAAAAGgAACAAADBSwmAMyDoAABgCIAqBSAAACCAAkIAAAiAEGCMgdNzaMNRqieWCl4BUPqYfL7PzOoAABCAAYAABAAAIQADAAAAAAAAAAAA==

> <PUBCHEM_IUPAC_OPENEYE_NAME>
3-acetyl-7-methoxy-2-methyl-5-[(2S,3R,4S,5S,6R)-3,4,5-trihydroxy-6-(hydroxymethyl)tetrahydropyran-2-yl]oxy-naphthalene-1,4-dione

> <PUBCHEM_IUPAC_CAS_NAME>
3-acetyl-7-methoxy-2-methyl-5-[[(2S,3R,4S,5S,6R)-3,4,5-trihydroxy-6-(hydroxymethyl)-2-oxanyl]oxy]naphthalene-1,4-dione

> <PUBCHEM_IUPAC_NAME>
3-acetyl-7-methoxy-2-methyl-5-[(2S,3R,4S,5S,6R)-3,4,5-trihydroxy-6-(hydroxymethyl)oxan-2-yl]oxynaphthalene-1,4-dione

> <PUBCHEM_IUPAC_SYSTEMATIC_NAME>
3-ethanoyl-5-[(2S,3R,4S,5S,6R)-6-(hydroxymethyl)-3,4,5-tris(oxidanyl)oxan-2-yl]oxy-7-methoxy-2-methyl-naphthalene-1,4-dione

> <PUBCHEM_IUPAC_TRADITIONAL_NAME>
3-acetyl-7-methoxy-2-methyl-5-[(2S,3R,4S,5S,6R)-3,4,5-trihydroxy-6-methylol-tetrahydropyran-2-yl]oxy-1,4-naphthoquinone

> <PUBCHEM_IUPAC_INCHI>
InChI=1S/C20H22O10/c1-7-13(8(2)22)17(25)14-10(15(7)23)4-9(28-3)5-11(14)29-20-19(27)18(26)16(24)12(6-21)30-20/h4-5,12,16,18-21,24,26-27H,6H2,1-3H3/t12-,16-,18+,19-,20-/m1/s1

> <PUBCHEM_IUPAC_INCHIKEY>
GVMOOQOCLYWVKF-BNCZOOBYSA-N

> <PUBCHEM_XLOGP3_AA>
-0.5

> <PUBCHEM_EXACT_MASS>
422.121

> <PUBCHEM_MOLECULAR_FORMULA>
C20H22O10

> <PUBCHEM_MOLECULAR_WEIGHT>
422.386

> <PUBCHEM_OPENEYE_CAN_SMILES>
CC1=C(C(=O)C2=C(C=C(C=C2C1=O)OC)OC3C(C(C(C(O3)CO)O)O)O)C(=O)C

> <PUBCHEM_OPENEYE_ISO_SMILES>
CC1=C(C(=O)C2=C(C=C(C=C2C1=O)OC)O[C@H]3[C@@H]([C@H]([C@@H]([C@H](O3)CO)O)O)O)C(=O)C

> <PUBCHEM_CACTVS_TPSA>
160

> <PUBCHEM_MONOISOTOPIC_WEIGHT>
422.121

> <PUBCHEM_TOTAL_CHARGE>
0

> <PUBCHEM_HEAVY_ATOM_COUNT>
30

> <PUBCHEM_ATOM_DEF_STEREO_COUNT>
5

> <PUBCHEM_ATOM_UDEF_STEREO_COUNT>
0

> <PUBCHEM_BOND_DEF_STEREO_COUNT>
0

> <PUBCHEM_BOND_UDEF_STEREO_COUNT>
0

> <PUBCHEM_ISOTOPIC_ATOM_COUNT>
0

> <PUBCHEM_COMPONENT_COUNT>
1

> <PUBCHEM_CACTVS_TAUTO_COUNT>
7

> <PUBCHEM_COORDINATE_TYPE>
1
5
255

> <PUBCHEM_BONDANNOTATIONS>
14  16  5
17  18  8
17  20  8
18  19  8
19  23  8
15  2  5
20  22  8
22  23  8
11  3  5
12  4  6
13  5  6

$$$$
