5320448
  -OEChem-12071809182D

 72 77  0     1  0  0  0  0  0999 V2000
    8.6492    1.3702    0.0000 O   0  0  0  0  0  0  0  0  0  0  0  0
    6.1671   -4.4214    0.0000 O   0  0  0  0  0  0  0  0  0  0  0  0
    2.5355   -3.4043    0.0000 O   0  0  0  0  0  0  0  0  0  0  0  0
   11.2252    1.7791    0.0000 N   0  0  0  0  0  0  0  0  0  0  0  0
    6.1817   -1.3644    0.0000 C   0  0  3  0  0  0  0  0  0  0  0  0
    7.0422   -1.8622    0.0000 C   0  0  3  0  0  0  0  0  0  0  0  0
    5.2767   -1.8674    0.0000 C   0  0  3  0  0  0  0  0  0  0  0  0
    7.7827   -1.1989    0.0000 C   0  0  3  0  0  0  0  0  0  0  0  0
    6.3876   -0.3918    0.0000 C   0  0  0  0  0  0  0  0  0  0  0  0
    7.3759   -0.2854    0.0000 C   0  0  0  0  0  0  0  0  0  0  0  0
    5.2678   -2.9029    0.0000 C   0  0  3  0  0  0  0  0  0  0  0  0
    8.9582    0.4191    0.0000 C   0  0  3  0  0  0  0  0  0  0  0  0
    8.7772   -1.3034    0.0000 C   0  0  0  0  0  0  0  0  0  0  0  0
    7.0573   -2.8975    0.0000 C   0  0  0  0  0  0  0  0  0  0  0  0
    7.9637    0.5237    0.0000 C   0  0  0  0  0  0  0  0  0  0  0  0
    4.3558   -1.3059    0.0000 C   0  0  0  0  0  0  0  0  0  0  0  0
    9.3650   -0.4944    0.0000 C   0  0  0  0  0  0  0  0  0  0  0  0
    9.9582    0.4191    0.0000 C   0  0  3  0  0  0  0  0  0  0  0  0
    6.1641   -3.4214    0.0000 C   0  0  0  0  0  0  0  0  0  0  0  0
   10.2673    1.3702    0.0000 C   0  0  3  0  0  0  0  0  0  0  0  0
    4.3374   -3.4485    0.0000 C   0  0  0  0  0  0  0  0  0  0  0  0
    5.2852   -0.8675    0.0000 C   0  0  0  0  0  0  0  0  0  0  0  0
    9.4582    1.9580    0.0000 C   0  0  3  0  0  0  0  0  0  0  0  0
    3.4131   -1.8299    0.0000 C   0  0  0  0  0  0  0  0  0  0  0  0
    3.4038   -2.9084    0.0000 C   0  0  3  0  0  0  0  0  0  0  0  0
    9.5511    2.9954    0.0000 C   0  0  0  0  0  0  0  0  0  0  0  0
    7.5570    1.4372    0.0000 C   0  0  0  0  0  0  0  0  0  0  0  0
   10.5460   -0.3899    0.0000 C   0  0  0  0  0  0  0  0  0  0  0  0
   10.4994    3.4264    0.0000 C   0  0  3  0  0  0  0  0  0  0  0  0
   11.3421    2.8142    0.0000 C   0  0  0  0  0  0  0  0  0  0  0  0
   10.6001    4.4214    0.0000 C   0  0  0  0  0  0  0  0  0  0  0  0
    5.6830   -0.9961    0.0000 H   0  0  0  0  0  0  0  0  0  0  0  0
    7.6101   -2.1109    0.0000 H   0  0  0  0  0  0  0  0  0  0  0  0
    7.9735   -1.7888    0.0000 H   0  0  0  0  0  0  0  0  0  0  0  0
    6.3863    0.2282    0.0000 H   0  0  0  0  0  0  0  0  0  0  0  0
    5.7709   -0.3279    0.0000 H   0  0  0  0  0  0  0  0  0  0  0  0
    5.2697   -3.5228    0.0000 H   0  0  0  0  0  0  0  0  0  0  0  0
    8.6063   -1.8994    0.0000 H   0  0  0  0  0  0  0  0  0  0  0  0
    9.3344   -1.5752    0.0000 H   0  0  0  0  0  0  0  0  0  0  0  0
    7.2748   -3.4781    0.0000 H   0  0  0  0  0  0  0  0  0  0  0  0
    7.6665   -2.7825    0.0000 H   0  0  0  0  0  0  0  0  0  0  0  0
    9.7957   -0.9404    0.0000 H   0  0  0  0  0  0  0  0  0  0  0  0
    9.8790   -0.1477    0.0000 H   0  0  0  0  0  0  0  0  0  0  0  0
    4.7644   -0.8396    0.0000 H   0  0  0  0  0  0  0  0  0  0  0  0
    3.9663   -0.8235    0.0000 H   0  0  0  0  0  0  0  0  0  0  0  0
   10.5706    0.5161    0.0000 H   0  0  0  0  0  0  0  0  0  0  0  0
   10.7248    0.9518    0.0000 H   0  0  0  0  0  0  0  0  0  0  0  0
    3.9397   -3.9242    0.0000 H   0  0  0  0  0  0  0  0  0  0  0  0
    4.7380   -3.9218    0.0000 H   0  0  0  0  0  0  0  0  0  0  0  0
    5.9052   -0.8728    0.0000 H   0  0  0  0  0  0  0  0  0  0  0  0
    5.2906   -0.2475    0.0000 H   0  0  0  0  0  0  0  0  0  0  0  0
    4.6653   -0.8622    0.0000 H   0  0  0  0  0  0  0  0  0  0  0  0
    8.9189    2.2638    0.0000 H   0  0  0  0  0  0  0  0  0  0  0  0
    3.2090   -1.2444    0.0000 H   0  0  0  0  0  0  0  0  0  0  0  0
    2.8013   -1.9308    0.0000 H   0  0  0  0  0  0  0  0  0  0  0  0
    2.8690   -2.5949    0.0000 H   0  0  0  0  0  0  0  0  0  0  0  0
    9.3950    3.5955    0.0000 H   0  0  0  0  0  0  0  0  0  0  0  0
    8.9332    2.9443    0.0000 H   0  0  0  0  0  0  0  0  0  0  0  0
    8.1234    1.6894    0.0000 H   0  0  0  0  0  0  0  0  0  0  0  0
    7.3048    2.0036    0.0000 H   0  0  0  0  0  0  0  0  0  0  0  0
    6.9906    1.1850    0.0000 H   0  0  0  0  0  0  0  0  0  0  0  0
   10.0444   -0.7543    0.0000 H   0  0  0  0  0  0  0  0  0  0  0  0
   10.9104   -0.8915    0.0000 H   0  0  0  0  0  0  0  0  0  0  0  0
   11.0476   -0.0255    0.0000 H   0  0  0  0  0  0  0  0  0  0  0  0
   11.7226    1.4089    0.0000 H   0  0  0  0  0  0  0  0  0  0  0  0
   11.0653    3.6797    0.0000 H   0  0  0  0  0  0  0  0  0  0  0  0
   11.9372    2.6402    0.0000 H   0  0  0  0  0  0  0  0  0  0  0  0
   11.6153    3.3707    0.0000 H   0  0  0  0  0  0  0  0  0  0  0  0
    2.0000   -3.0918    0.0000 H   0  0  0  0  0  0  0  0  0  0  0  0
   11.2170    4.3589    0.0000 H   0  0  0  0  0  0  0  0  0  0  0  0
   10.6625    5.0382    0.0000 H   0  0  0  0  0  0  0  0  0  0  0  0
    9.9833    4.4838    0.0000 H   0  0  0  0  0  0  0  0  0  0  0  0
  1 12  1  0  0  0  0
  1 23  1  0  0  0  0
  2 19  2  0  0  0  0
  3 25  1  0  0  0  0
  3 69  1  0  0  0  0
  4 20  1  0  0  0  0
  4 30  1  0  0  0  0
  4 65  1  0  0  0  0
  5  6  1  0  0  0  0
  5  7  1  0  0  0  0
  5  9  1  0  0  0  0
  5 32  1  0  0  0  0
  6  8  1  0  0  0  0
  6 14  1  0  0  0  0
  6 33  1  0  0  0  0
  7 11  1  0  0  0  0
  7 16  1  0  0  0  0
  7 22  1  0  0  0  0
  8 10  1  0  0  0  0
  8 13  1  0  0  0  0
  8 34  1  0  0  0  0
  9 10  1  0  0  0  0
  9 35  1  0  0  0  0
  9 36  1  0  0  0  0
 10 15  2  0  0  0  0
 11 19  1  0  0  0  0
 11 21  1  0  0  0  0
 11 37  1  0  0  0  0
 12 15  1  0  0  0  0
 12 17  1  0  0  0  0
 12 18  1  0  0  0  0
 13 17  1  0  0  0  0
 13 38  1  0  0  0  0
 13 39  1  0  0  0  0
 14 19  1  0  0  0  0
 14 40  1  0  0  0  0
 14 41  1  0  0  0  0
 15 27  1  0  0  0  0
 16 24  1  0  0  0  0
 16 44  1  0  0  0  0
 16 45  1  0  0  0  0
 17 42  1  0  0  0  0
 17 43  1  0  0  0  0
 18 20  1  0  0  0  0
 18 28  1  0  0  0  0
 18 46  1  0  0  0  0
 20 23  1  0  0  0  0
 20 47  1  0  0  0  0
 21 25  1  0  0  0  0
 21 48  1  0  0  0  0
 21 49  1  0  0  0  0
 22 50  1  0  0  0  0
 22 51  1  0  0  0  0
 22 52  1  0  0  0  0
 23 26  1  0  0  0  0
 23 53  1  0  0  0  0
 24 25  1  0  0  0  0
 24 54  1  0  0  0  0
 24 55  1  0  0  0  0
 25 56  1  0  0  0  0
 26 29  1  0  0  0  0
 26 57  1  0  0  0  0
 26 58  1  0  0  0  0
 27 59  1  0  0  0  0
 27 60  1  0  0  0  0
 27 61  1  0  0  0  0
 28 62  1  0  0  0  0
 28 63  1  0  0  0  0
 28 64  1  0  0  0  0
 29 30  1  0  0  0  0
 29 31  1  0  0  0  0
 29 66  1  0  0  0  0
 30 67  1  0  0  0  0
 30 68  1  0  0  0  0
 31 70  1  0  0  0  0
 31 71  1  0  0  0  0
 31 72  1  0  0  0  0
M  END
> <PUBCHEM_COMPOUND_CID>
5320448

> <PUBCHEM_COMPOUND_CANONICALIZED>
1

> <PUBCHEM_CACTVS_COMPLEXITY>
821

> <PUBCHEM_CACTVS_HBOND_ACCEPTOR>
4

> <PUBCHEM_CACTVS_HBOND_DONOR>
2

> <PUBCHEM_CACTVS_ROTATABLE_BOND>
0

> <PUBCHEM_CACTVS_SUBSKEYS>
AAADcfB6MAAAAAAAAAAAAAAAAAAAAaIAAAA8YIEAAAAAAHjAAAAAHgAQCAAAD3zhgAYCAALABgCIAoBQAAAAAAAgAAAACIEIAAgCFBIAoAAHUAAGkACYIAO6yPCPgAAAAAAAAADAAAYAACAAAQAACAAAAA==

> <PUBCHEM_IUPAC_OPENEYE_NAME>
3-hydroxy-3',6',10,11b-tetramethyl-spiro[1,2,3,4,4a,6,6a,6b,7,8,11,11a-dodecahydrobenzo[a]fluorene-9,2'-3a,4,5,6,7,7a-hexahydro-3H-furo[3,2-b]pyridine]-5-one

> <PUBCHEM_IUPAC_CAS_NAME>
3-hydroxy-3',6',10,11b-tetramethyl-5-spiro[1,2,3,4,4a,6,6a,6b,7,8,11,11a-dodecahydrobenzo[a]fluorene-9,2'-3a,4,5,6,7,7a-hexahydro-3H-furo[3,2-b]pyridine]one

> <PUBCHEM_IUPAC_NAME>
3-hydroxy-3',6',10,11b-tetramethylspiro[1,2,3,4,4a,6,6a,6b,7,8,11,11a-dodecahydrobenzo[a]fluorene-9,2'-3a,4,5,6,7,7a-hexahydro-3H-furo[3,2-b]pyridine]-5-one

> <PUBCHEM_IUPAC_SYSTEMATIC_NAME>
3',6',10,11b-tetramethyl-3-oxidanyl-spiro[1,2,3,4,4a,6,6a,6b,7,8,11,11a-dodecahydrobenzo[a]fluorene-9,2'-3a,4,5,6,7,7a-hexahydro-3H-furo[3,2-b]pyridine]-5-one

> <PUBCHEM_IUPAC_TRADITIONAL_NAME>
3-hydroxy-3',6',10,11b-tetramethyl-spiro[1,2,3,4,4a,6,6a,6b,7,8,11,11a-dodecahydrobenzo[a]fluorene-9,2'-3a,4,5,6,7,7a-hexahydro-3H-furo[3,2-b]pyridine]-5-one

> <PUBCHEM_IUPAC_INCHI>
InChI=1S/C27H41NO3/c1-14-9-24-25(28-13-14)16(3)27(31-24)8-6-18-19(15(27)2)11-21-20(18)12-23(30)22-10-17(29)5-7-26(21,22)4/h14,16-18,20-22,24-25,28-29H,5-13H2,1-4H3

> <PUBCHEM_IUPAC_INCHIKEY>
KYELXPJVGNZIGC-UHFFFAOYSA-N

> <PUBCHEM_XLOGP3_AA>
2.7

> <PUBCHEM_EXACT_MASS>
427.309

> <PUBCHEM_MOLECULAR_FORMULA>
C27H41NO3

> <PUBCHEM_MOLECULAR_WEIGHT>
427.629

> <PUBCHEM_OPENEYE_CAN_SMILES>
CC1CC2C(C(C3(O2)CCC4C5CC(=O)C6CC(CCC6(C5CC4=C3C)C)O)C)NC1

> <PUBCHEM_OPENEYE_ISO_SMILES>
CC1CC2C(C(C3(O2)CCC4C5CC(=O)C6CC(CCC6(C5CC4=C3C)C)O)C)NC1

> <PUBCHEM_CACTVS_TPSA>
58.6

> <PUBCHEM_MONOISOTOPIC_WEIGHT>
427.309

> <PUBCHEM_TOTAL_CHARGE>
0

> <PUBCHEM_HEAVY_ATOM_COUNT>
31

> <PUBCHEM_ATOM_DEF_STEREO_COUNT>
0

> <PUBCHEM_ATOM_UDEF_STEREO_COUNT>
11

> <PUBCHEM_BOND_DEF_STEREO_COUNT>
0

> <PUBCHEM_BOND_UDEF_STEREO_COUNT>
0

> <PUBCHEM_ISOTOPIC_ATOM_COUNT>
0

> <PUBCHEM_COMPONENT_COUNT>
1

> <PUBCHEM_CACTVS_TAUTO_COUNT>
3

> <PUBCHEM_COORDINATE_TYPE>
1
5
255

> <PUBCHEM_BONDANNOTATIONS>
11  19  3
12  15  3
18  28  3
23  26  3
29  31  3
25  3  3
20  4  3
5  9  3
6  14  3
7  22  3
8  13  3

$$$$
