70699355
  -OEChem-12071809302D

 99103  0     1  0  0  0  0  0999 V2000
    6.8671   -4.4699    0.0000 O   0  0  0  0  0  0  0  0  0  0  0  0
    5.1350   -4.4699    0.0000 O   0  0  0  0  0  0  0  0  0  0  0  0
    6.8671   -6.4699    0.0000 O   0  0  0  0  0  0  0  0  0  0  0  0
    5.1350   -7.4699    0.0000 O   0  0  0  0  0  0  0  0  0  0  0  0
    3.4030   -6.4699    0.0000 O   0  0  0  0  0  0  0  0  0  0  0  0
    2.5369   -4.9699    0.0000 O   0  0  0  0  0  0  0  0  0  0  0  0
    6.8963    1.7270    0.0000 C   0  0  1  0  0  0  0  0  0  0  0  0
    7.7643    1.2303    0.0000 C   0  0  2  0  0  0  0  0  0  0  0  0
    7.7681    0.2303    0.0000 C   0  0  1  0  0  0  0  0  0  0  0  0
    6.9040   -0.2730    0.0000 C   0  0  1  0  0  0  0  0  0  0  0  0
    7.1018    2.6996    0.0000 C   0  0  2  0  0  0  0  0  0  0  0  0
    6.0322    1.2236    0.0000 C   0  0  0  0  0  0  0  0  0  0  0  0
    6.8920   -1.3146    0.0000 C   0  0  2  0  0  0  0  0  0  0  0  0
    8.4987    1.9002    0.0000 C   0  0  0  0  0  0  0  0  0  0  0  0
    6.0361    0.2237    0.0000 C   0  0  0  0  0  0  0  0  0  0  0  0
    8.0901    2.8065    0.0000 C   0  0  0  0  0  0  0  0  0  0  0  0
    8.6801   -0.2730    0.0000 C   0  0  0  0  0  0  0  0  0  0  0  0
    6.0284    2.2236    0.0000 C   0  0  0  0  0  0  0  0  0  0  0  0
    7.7920   -1.8389    0.0000 C   0  0  0  0  0  0  0  0  0  0  0  0
    6.4311    3.4413    0.0000 C   0  0  2  0  0  0  0  0  0  0  0  0
    5.9421   -1.8389    0.0000 C   0  0  0  0  0  0  0  0  0  0  0  0
    8.6921   -1.3146    0.0000 C   0  0  0  0  0  0  0  0  0  0  0  0
    6.0279   -0.8112    0.0000 C   0  0  0  0  0  0  0  0  0  0  0  0
    7.8046   -2.9238    0.0000 C   0  0  0  0  0  0  0  0  0  0  0  0
    5.9295   -2.9238    0.0000 C   0  0  0  0  0  0  0  0  0  0  0  0
    6.8671   -3.4699    0.0000 C   0  0  2  0  0  0  0  0  0  0  0  0
    5.4534    3.2313    0.0000 C   0  0  0  0  0  0  0  0  0  0  0  0
    6.7381    4.3930    0.0000 C   0  0  0  0  0  0  0  0  0  0  0  0
    6.0674    5.1348    0.0000 C   0  0  0  0  0  0  0  0  0  0  0  0
    6.0010   -4.9699    0.0000 C   0  0  2  0  0  0  0  0  0  0  0  0
    6.3744    6.0865    0.0000 C   0  0  2  0  0  0  0  0  0  0  0  0
    6.0010   -5.9699    0.0000 C   0  0  3  0  0  0  0  0  0  0  0  0
    5.7036    6.8282    0.0000 C   0  0  0  0  0  0  0  0  0  0  0  0
    7.3521    6.2964    0.0000 C   0  0  0  0  0  0  0  0  0  0  0  0
    5.1350   -6.4699    0.0000 C   0  0  3  0  0  0  0  0  0  0  0  0
    4.2690   -4.9699    0.0000 C   0  0  3  0  0  0  0  0  0  0  0  0
    4.2690   -5.9699    0.0000 C   0  0  1  0  0  0  0  0  0  0  0  0
    6.0106    7.7799    0.0000 C   0  0  0  0  0  0  0  0  0  0  0  0
    4.7259    6.6182    0.0000 C   0  0  0  0  0  0  0  0  0  0  0  0
    7.6591    7.2482    0.0000 C   0  0  0  0  0  0  0  0  0  0  0  0
    3.4030   -4.4699    0.0000 C   0  0  0  0  0  0  0  0  0  0  0  0
    8.5426    0.8886    0.0000 H   0  0  0  0  0  0  0  0  0  0  0  0
    8.4993    0.6638    0.0000 H   0  0  0  0  0  0  0  0  0  0  0  0
    7.6385   -0.7008    0.0000 H   0  0  0  0  0  0  0  0  0  0  0  0
    7.4044    3.4939    0.0000 H   0  0  0  0  0  0  0  0  0  0  0  0
    5.8179    1.8054    0.0000 H   0  0  0  0  0  0  0  0  0  0  0  0
    5.4221    1.1136    0.0000 H   0  0  0  0  0  0  0  0  0  0  0  0
    8.8661    1.4008    0.0000 H   0  0  0  0  0  0  0  0  0  0  0  0
    9.0340    2.2131    0.0000 H   0  0  0  0  0  0  0  0  0  0  0  0
    5.4251    0.3290    0.0000 H   0  0  0  0  0  0  0  0  0  0  0  0
    5.8263   -0.3598    0.0000 H   0  0  0  0  0  0  0  0  0  0  0  0
    8.6790    3.0005    0.0000 H   0  0  0  0  0  0  0  0  0  0  0  0
    7.9590    3.4124    0.0000 H   0  0  0  0  0  0  0  0  0  0  0  0
    9.2921   -0.3720    0.0000 H   0  0  0  0  0  0  0  0  0  0  0  0
    8.8824    0.3131    0.0000 H   0  0  0  0  0  0  0  0  0  0  0  0
    6.3363    2.7618    0.0000 H   0  0  0  0  0  0  0  0  0  0  0  0
    5.4902    2.5316    0.0000 H   0  0  0  0  0  0  0  0  0  0  0  0
    5.7204    1.6855    0.0000 H   0  0  0  0  0  0  0  0  0  0  0  0
    6.0152    3.9012    0.0000 H   0  0  0  0  0  0  0  0  0  0  0  0
    5.7398   -1.2528    0.0000 H   0  0  0  0  0  0  0  0  0  0  0  0
    5.3300   -1.9379    0.0000 H   0  0  0  0  0  0  0  0  0  0  0  0
    9.2314   -1.6204    0.0000 H   0  0  0  0  0  0  0  0  0  0  0  0
    6.3400   -0.2755    0.0000 H   0  0  0  0  0  0  0  0  0  0  0  0
    5.4922   -0.4992    0.0000 H   0  0  0  0  0  0  0  0  0  0  0  0
    5.7158   -1.3470    0.0000 H   0  0  0  0  0  0  0  0  0  0  0  0
    8.0204   -3.5050    0.0000 H   0  0  0  0  0  0  0  0  0  0  0  0
    8.4142   -2.8106    0.0000 H   0  0  0  0  0  0  0  0  0  0  0  0
    5.3199   -2.8106    0.0000 H   0  0  0  0  0  0  0  0  0  0  0  0
    5.7137   -3.5050    0.0000 H   0  0  0  0  0  0  0  0  0  0  0  0
    7.4046   -3.7789    0.0000 H   0  0  0  0  0  0  0  0  0  0  0  0
    5.3232    3.8375    0.0000 H   0  0  0  0  0  0  0  0  0  0  0  0
    4.8472    3.1011    0.0000 H   0  0  0  0  0  0  0  0  0  0  0  0
    5.5836    2.6252    0.0000 H   0  0  0  0  0  0  0  0  0  0  0  0
    7.3442    4.5232    0.0000 H   0  0  0  0  0  0  0  0  0  0  0  0
    5.4612    5.0046    0.0000 H   0  0  0  0  0  0  0  0  0  0  0  0
    6.0010   -4.3499    0.0000 H   0  0  0  0  0  0  0  0  0  0  0  0
    6.7902    5.6266    0.0000 H   0  0  0  0  0  0  0  0  0  0  0  0
    6.0010   -6.5899    0.0000 H   0  0  0  0  0  0  0  0  0  0  0  0
    5.5133    6.2381    0.0000 H   0  0  0  0  0  0  0  0  0  0  0  0
    7.3750    5.6769    0.0000 H   0  0  0  0  0  0  0  0  0  0  0  0
    7.9662    6.2115    0.0000 H   0  0  0  0  0  0  0  0  0  0  0  0
    4.5981   -6.7799    0.0000 H   0  0  0  0  0  0  0  0  0  0  0  0
    4.2690   -4.3499    0.0000 H   0  0  0  0  0  0  0  0  0  0  0  0
    3.7320   -5.6599    0.0000 H   0  0  0  0  0  0  0  0  0  0  0  0
    6.6007    7.5896    0.0000 H   0  0  0  0  0  0  0  0  0  0  0  0
    6.2010    8.3700    0.0000 H   0  0  0  0  0  0  0  0  0  0  0  0
    5.4206    7.9702    0.0000 H   0  0  0  0  0  0  0  0  0  0  0  0
    4.5958    7.2244    0.0000 H   0  0  0  0  0  0  0  0  0  0  0  0
    4.1198    6.4880    0.0000 H   0  0  0  0  0  0  0  0  0  0  0  0
    4.8561    6.0120    0.0000 H   0  0  0  0  0  0  0  0  0  0  0  0
    8.2491    7.0578    0.0000 H   0  0  0  0  0  0  0  0  0  0  0  0
    7.8494    7.8382    0.0000 H   0  0  0  0  0  0  0  0  0  0  0  0
    7.0690    7.4385    0.0000 H   0  0  0  0  0  0  0  0  0  0  0  0
    6.8671   -7.0899    0.0000 H   0  0  0  0  0  0  0  0  0  0  0  0
    3.8015   -3.9950    0.0000 H   0  0  0  0  0  0  0  0  0  0  0  0
    3.0044   -3.9950    0.0000 H   0  0  0  0  0  0  0  0  0  0  0  0
    4.5981   -7.7799    0.0000 H   0  0  0  0  0  0  0  0  0  0  0  0
    3.4030   -7.0899    0.0000 H   0  0  0  0  0  0  0  0  0  0  0  0
    2.0000   -4.6599    0.0000 H   0  0  0  0  0  0  0  0  0  0  0  0
 26  1  1  1  0  0  0
 30  1  1  1  0  0  0
  2 30  1  0  0  0  0
  2 36  1  0  0  0  0
  3 32  1  0  0  0  0
  3 94  1  0  0  0  0
  4 35  1  0  0  0  0
  4 97  1  0  0  0  0
 37  5  1  6  0  0  0
  5 98  1  0  0  0  0
  6 41  1  0  0  0  0
  6 99  1  0  0  0  0
  7  8  1  0  0  0  0
  7 11  1  0  0  0  0
  7 12  1  0  0  0  0
  7 18  1  1  0  0  0
  8  9  1  0  0  0  0
  8 14  1  0  0  0  0
  8 42  1  6  0  0  0
  9 10  1  0  0  0  0
  9 17  1  0  0  0  0
  9 43  1  1  0  0  0
 10 13  1  0  0  0  0
 10 15  1  0  0  0  0
 10 44  1  6  0  0  0
 11 16  1  0  0  0  0
 11 20  1  0  0  0  0
 11 45  1  6  0  0  0
 12 15  1  0  0  0  0
 12 46  1  0  0  0  0
 12 47  1  0  0  0  0
 13 19  1  0  0  0  0
 13 21  1  0  0  0  0
 13 23  1  1  0  0  0
 14 16  1  0  0  0  0
 14 48  1  0  0  0  0
 14 49  1  0  0  0  0
 15 50  1  0  0  0  0
 15 51  1  0  0  0  0
 16 52  1  0  0  0  0
 16 53  1  0  0  0  0
 17 22  1  0  0  0  0
 17 54  1  0  0  0  0
 17 55  1  0  0  0  0
 18 56  1  0  0  0  0
 18 57  1  0  0  0  0
 18 58  1  0  0  0  0
 19 22  2  0  0  0  0
 19 24  1  0  0  0  0
 20 27  1  6  0  0  0
 20 28  1  0  0  0  0
 20 59  1  0  0  0  0
 21 25  1  0  0  0  0
 21 60  1  0  0  0  0
 21 61  1  0  0  0  0
 22 62  1  0  0  0  0
 23 63  1  0  0  0  0
 23 64  1  0  0  0  0
 23 65  1  0  0  0  0
 24 26  1  0  0  0  0
 24 66  1  0  0  0  0
 24 67  1  0  0  0  0
 25 26  1  0  0  0  0
 25 68  1  0  0  0  0
 25 69  1  0  0  0  0
 26 70  1  0  0  0  0
 27 71  1  0  0  0  0
 27 72  1  0  0  0  0
 27 73  1  0  0  0  0
 28 29  2  0  0  0  0
 28 74  1  0  0  0  0
 31 29  1  6  0  0  0
 29 75  1  0  0  0  0
 30 32  1  0  0  0  0
 30 76  1  0  0  0  0
 31 33  1  0  0  0  0
 31 34  1  0  0  0  0
 31 77  1  0  0  0  0
 32 35  1  0  0  0  0
 32 78  1  0  0  0  0
 33 38  1  0  0  0  0
 33 39  1  0  0  0  0
 33 79  1  0  0  0  0
 34 40  1  0  0  0  0
 34 80  1  0  0  0  0
 34 81  1  0  0  0  0
 35 37  1  0  0  0  0
 35 82  1  0  0  0  0
 36 37  1  0  0  0  0
 36 41  1  0  0  0  0
 36 83  1  0  0  0  0
 37 84  1  0  0  0  0
 38 85  1  0  0  0  0
 38 86  1  0  0  0  0
 38 87  1  0  0  0  0
 39 88  1  0  0  0  0
 39 89  1  0  0  0  0
 39 90  1  0  0  0  0
 40 91  1  0  0  0  0
 40 92  1  0  0  0  0
 40 93  1  0  0  0  0
 41 95  1  0  0  0  0
 41 96  1  0  0  0  0
M  END
> <PUBCHEM_COMPOUND_CID>
70699355

> <PUBCHEM_COMPOUND_CANONICALIZED>
1

> <PUBCHEM_CACTVS_COMPLEXITY>
962

> <PUBCHEM_CACTVS_HBOND_ACCEPTOR>
6

> <PUBCHEM_CACTVS_HBOND_DONOR>
4

> <PUBCHEM_CACTVS_ROTATABLE_BOND>
8

> <PUBCHEM_CACTVS_SUBSKEYS>
AAADcfB8OAAAAAAAAAAAAAAAAAAAAYAAAAA0YIEAAAAAAGCAAAAAGgAACAAADxSwgAMCCAAABgCAAiBCAAAAAAAgAAAICAAAAAgREAIAAQAiQAAFwAAPAAPA4PwPgAAAAAAAAADAAAQAACAAAQAACAAAAA==

> <PUBCHEM_IUPAC_OPENEYE_NAME>
(2R,5S)-2-[[(3S,8S,9S,10R,13R,14S,17R)-17-[(E,1R,4S)-4-ethyl-1,5-dimethyl-hex-2-enyl]-10,13-dimethyl-2,3,4,7,8,9,11,12,14,15,16,17-dodecahydro-1H-cyclopenta[a]phenanthren-3-yl]oxy]-6-(hydroxymethyl)tetrahydropyran-3,4,5-triol

> <PUBCHEM_IUPAC_CAS_NAME>
(2R,5S)-2-[[(3S,8S,9S,10R,13R,14S,17R)-17-[(E,2R,5S)-5-ethyl-6-methylhept-3-en-2-yl]-10,13-dimethyl-2,3,4,7,8,9,11,12,14,15,16,17-dodecahydro-1H-cyclopenta[a]phenanthren-3-yl]oxy]-6-(hydroxymethyl)oxane-3,4,5-triol

> <PUBCHEM_IUPAC_NAME>
(2R,5S)-2-[[(3S,8S,9S,10R,13R,14S,17R)-17-[(E,2R,5S)-5-ethyl-6-methylhept-3-en-2-yl]-10,13-dimethyl-2,3,4,7,8,9,11,12,14,15,16,17-dodecahydro-1H-cyclopenta[a]phenanthren-3-yl]oxy]-6-(hydroxymethyl)oxane-3,4,5-triol

> <PUBCHEM_IUPAC_SYSTEMATIC_NAME>
(2R,5S)-2-[[(3S,8S,9S,10R,13R,14S,17R)-17-[(E,2R,5S)-5-ethyl-6-methyl-hept-3-en-2-yl]-10,13-dimethyl-2,3,4,7,8,9,11,12,14,15,16,17-dodecahydro-1H-cyclopenta[a]phenanthren-3-yl]oxy]-6-(hydroxymethyl)oxane-3,4,5-triol

> <PUBCHEM_IUPAC_TRADITIONAL_NAME>
(2R,5S)-2-[[(3S,8S,9S,10R,13R,14S,17R)-17-[(E,1R,4S)-4-ethyl-1,5-dimethyl-hex-2-enyl]-10,13-dimethyl-2,3,4,7,8,9,11,12,14,15,16,17-dodecahydro-1H-cyclopenta[a]phenanthren-3-yl]oxy]-6-methylol-tetrahydropyran-3,4,5-triol

> <PUBCHEM_IUPAC_INCHI>
InChI=1S/C35H58O6/c1-7-22(20(2)3)9-8-21(4)26-12-13-27-25-11-10-23-18-24(14-16-34(23,5)28(25)15-17-35(26,27)6)40-33-32(39)31(38)30(37)29(19-36)41-33/h8-10,20-22,24-33,36-39H,7,11-19H2,1-6H3/b9-8+/t21-,22-,24+,25+,26-,27+,28+,29?,30-,31?,32?,33-,34+,35-/m1/s1

> <PUBCHEM_IUPAC_INCHIKEY>
VWDLOXMZIGUBKM-PLWLBJPKSA-N

> <PUBCHEM_XLOGP3_AA>
7

> <PUBCHEM_EXACT_MASS>
574.423

> <PUBCHEM_MOLECULAR_FORMULA>
C35H58O6

> <PUBCHEM_MOLECULAR_WEIGHT>
574.843

> <PUBCHEM_OPENEYE_CAN_SMILES>
CCC(C=CC(C)C1CCC2C1(CCC3C2CC=C4C3(CCC(C4)OC5C(C(C(C(O5)CO)O)O)O)C)C)C(C)C

> <PUBCHEM_OPENEYE_ISO_SMILES>
CC[C@H](/C=C/[C@@H](C)[C@H]1CC[C@@H]2[C@@]1(CC[C@H]3[C@H]2CC=C4[C@@]3(CC[C@@H](C4)O[C@H]5C(C([C@@H](C(O5)CO)O)O)O)C)C)C(C)C

> <PUBCHEM_CACTVS_TPSA>
99.4

> <PUBCHEM_MONOISOTOPIC_WEIGHT>
574.423

> <PUBCHEM_TOTAL_CHARGE>
0

> <PUBCHEM_HEAVY_ATOM_COUNT>
41

> <PUBCHEM_ATOM_DEF_STEREO_COUNT>
11

> <PUBCHEM_ATOM_UDEF_STEREO_COUNT>
3

> <PUBCHEM_BOND_DEF_STEREO_COUNT>
1

> <PUBCHEM_BOND_UDEF_STEREO_COUNT>
0

> <PUBCHEM_ISOTOPIC_ATOM_COUNT>
0

> <PUBCHEM_COMPONENT_COUNT>
1

> <PUBCHEM_CACTVS_TAUTO_COUNT>
1

> <PUBCHEM_COORDINATE_TYPE>
1
5
255

> <PUBCHEM_BONDANNOTATIONS>
26  1  5
30  1  5
10  44  6
11  45  6
13  23  5
20  27  6
31  29  6
32  3  3
36  41  3
35  4  3
37  5  6
7  18  5
8  42  6
9  43  5

$$$$
