10748754
  -OEChem-12071809302D

168175  0     1  0  0  0  0  0999 V2000
   12.4251   -3.1634    0.0000 O   0  0  0  0  0  0  0  0  0  0  0  0
   10.1734    0.8680    0.0000 O   0  0  0  0  0  0  0  0  0  0  0  0
   10.3312   -4.5903    0.0000 O   0  0  0  0  0  0  0  0  0  0  0  0
   15.3139    2.5701    0.0000 O   0  0  0  0  0  0  0  0  0  0  0  0
    8.5991   -4.5903    0.0000 O   0  0  0  0  0  0  0  0  0  0  0  0
   16.5986    1.4084    0.0000 O   0  0  0  0  0  0  0  0  0  0  0  0
   10.3312   -6.5903    0.0000 O   0  0  0  0  0  0  0  0  0  0  0  0
   16.6553    4.0535    0.0000 O   0  0  0  0  0  0  0  0  0  0  0  0
    8.5991   -7.5903    0.0000 O   0  0  0  0  0  0  0  0  0  0  0  0
    6.8671   -6.5903    0.0000 O   0  0  0  0  0  0  0  0  0  0  0  0
   18.6107    3.6336    0.0000 O   0  0  0  0  0  0  0  0  0  0  0  0
   19.2247    1.7301    0.0000 O   0  0  0  0  0  0  0  0  0  0  0  0
    6.8671   -3.5903    0.0000 O   0  0  0  0  0  0  0  0  0  0  0  0
   18.3037    4.5853    0.0000 O   0  0  0  0  0  0  0  0  0  0  0  0
   18.8610    0.0367    0.0000 O   0  0  0  0  0  0  0  0  0  0  0  0
   16.0413    5.9570    0.0000 O   0  0  0  0  0  0  0  0  0  0  0  0
    5.1350   -3.5903    0.0000 O   0  0  0  0  0  0  0  0  0  0  0  0
   17.3827    7.4404    0.0000 O   0  0  0  0  0  0  0  0  0  0  0  0
   19.3381    7.0204    0.0000 O   0  0  0  0  0  0  0  0  0  0  0  0
    6.8671   -1.5903    0.0000 O   0  0  0  0  0  0  0  0  0  0  0  0
   20.2591    4.1653    0.0000 O   0  0  0  0  0  0  0  0  0  0  0  0
    5.1350   -0.5903    0.0000 O   0  0  0  0  0  0  0  0  0  0  0  0
    3.4030   -1.5903    0.0000 O   0  0  0  0  0  0  0  0  0  0  0  0
    2.5369   -3.0903    0.0000 O   0  0  0  0  0  0  0  0  0  0  0  0
   10.8252   -1.0561    0.0000 C   0  0  1  0  0  0  0  0  0  0  0  0
   11.4931   -0.3118    0.0000 C   0  0  1  0  0  0  0  0  0  0  0  0
   11.1359   -2.0066    0.0000 C   0  0  1  0  0  0  0  0  0  0  0  0
   12.4716   -0.5180    0.0000 C   0  0  1  0  0  0  0  0  0  0  0  0
   13.1791    0.2464    0.0000 C   0  0  2  0  0  0  0  0  0  0  0  0
   10.3312   -2.5903    0.0000 C   0  0  2  0  0  0  0  0  0  0  0  0
    9.8312   -1.0604    0.0000 C   0  0  0  0  0  0  0  0  0  0  0  0
   12.1144   -2.2129    0.0000 C   0  0  1  0  0  0  0  0  0  0  0  0
   12.7822   -1.4686    0.0000 C   0  0  0  0  0  0  0  0  0  0  0  0
   11.1543    0.6732    0.0000 C   0  0  2  0  0  0  0  0  0  0  0  0
    9.5264   -2.0066    0.0000 C   0  0  0  0  0  0  0  0  0  0  0  0
   12.8631    1.2390    0.0000 C   0  0  0  0  0  0  0  0  0  0  0  0
   10.2082   -0.2692    0.0000 C   0  0  0  0  0  0  0  0  0  0  0  0
   10.6441    0.2166    0.0000 C   0  0  0  0  0  0  0  0  0  0  0  0
   10.3312   -3.5903    0.0000 C   0  0  2  0  0  0  0  0  0  0  0  0
   14.2353   -0.0018    0.0000 C   0  0  0  0  0  0  0  0  0  0  0  0
   11.8439    1.4538    0.0000 C   0  0  0  0  0  0  0  0  0  0  0  0
   13.5815    2.0521    0.0000 C   0  0  0  0  0  0  0  0  0  0  0  0
   13.4824   -0.7065    0.0000 C   0  0  0  0  0  0  0  0  0  0  0  0
   14.9723    0.7945    0.0000 C   0  0  0  0  0  0  0  0  0  0  0  0
   14.6432    1.8284    0.0000 C   0  0  2  0  0  0  0  0  0  0  0  0
   11.3312   -3.5903    0.0000 C   0  0  0  0  0  0  0  0  0  0  0  0
    9.3312   -3.5903    0.0000 C   0  0  0  0  0  0  0  0  0  0  0  0
   13.7840    3.0314    0.0000 C   0  0  0  0  0  0  0  0  0  0  0  0
   12.8346    2.7171    0.0000 C   0  0  0  0  0  0  0  0  0  0  0  0
   11.8312   -4.4563    0.0000 C   0  0  0  0  0  0  0  0  0  0  0  0
    9.4651   -5.0903    0.0000 C   0  0  2  0  0  0  0  0  0  0  0  0
   16.2916    2.3601    0.0000 C   0  0  2  0  0  0  0  0  0  0  0  0
    9.4651   -6.0903    0.0000 C   0  0  1  0  0  0  0  0  0  0  0  0
   12.8312   -4.4563    0.0000 C   0  0  0  0  0  0  0  0  0  0  0  0
   16.9623    3.1018    0.0000 C   0  0  1  0  0  0  0  0  0  0  0  0
    8.5991   -6.5903    0.0000 C   0  0  2  0  0  0  0  0  0  0  0  0
    7.7331   -5.0903    0.0000 C   0  0  1  0  0  0  0  0  0  0  0  0
    7.7331   -6.0903    0.0000 C   0  0  1  0  0  0  0  0  0  0  0  0
   17.9400    2.8918    0.0000 C   0  0  2  0  0  0  0  0  0  0  0  0
   17.5763    1.1984    0.0000 C   0  0  1  0  0  0  0  0  0  0  0  0
   13.3312   -5.3223    0.0000 C   0  0  0  0  0  0  0  0  0  0  0  0
   18.2470    1.9401    0.0000 C   0  0  1  0  0  0  0  0  0  0  0  0
    6.8671   -4.5903    0.0000 C   0  0  0  0  0  0  0  0  0  0  0  0
   17.8833    0.2467    0.0000 C   0  0  0  0  0  0  0  0  0  0  0  0
   14.3312   -5.3223    0.0000 C   0  0  0  0  0  0  0  0  0  0  0  0
   12.8312   -6.1883    0.0000 C   0  0  0  0  0  0  0  0  0  0  0  0
   17.3260    4.7952    0.0000 C   0  0  2  0  0  0  0  0  0  0  0  0
   17.0190    5.7470    0.0000 C   0  0  1  0  0  0  0  0  0  0  0  0
    6.0010   -3.0903    0.0000 C   0  0  2  0  0  0  0  0  0  0  0  0
   17.6897    6.4887    0.0000 C   0  0  2  0  0  0  0  0  0  0  0  0
   18.9744    5.3270    0.0000 C   0  0  1  0  0  0  0  0  0  0  0  0
   18.6674    6.2787    0.0000 C   0  0  1  0  0  0  0  0  0  0  0  0
    6.0010   -2.0903    0.0000 C   0  0  1  0  0  0  0  0  0  0  0  0
   19.9521    5.1170    0.0000 C   0  0  0  0  0  0  0  0  0  0  0  0
    5.1350   -1.5903    0.0000 C   0  0  2  0  0  0  0  0  0  0  0  0
    4.2690   -3.0903    0.0000 C   0  0  1  0  0  0  0  0  0  0  0  0
    4.2690   -2.0903    0.0000 C   0  0  1  0  0  0  0  0  0  0  0  0
    3.4030   -3.5903    0.0000 C   0  0  0  0  0  0  0  0  0  0  0  0
   11.3130   -2.8380    0.0000 H   0  0  0  0  0  0  0  0  0  0  0  0
   13.3019   -0.6997    0.0000 H   0  0  0  0  0  0  0  0  0  0  0  0
    9.5740   -2.9765    0.0000 H   0  0  0  0  0  0  0  0  0  0  0  0
    9.8937   -0.4436    0.0000 H   0  0  0  0  0  0  0  0  0  0  0  0
    9.2243   -0.9334    0.0000 H   0  0  0  0  0  0  0  0  0  0  0  0
   11.7003   -2.6743    0.0000 H   0  0  0  0  0  0  0  0  0  0  0  0
   13.1648   -1.9565    0.0000 H   0  0  0  0  0  0  0  0  0  0  0  0
   13.3292   -1.1766    0.0000 H   0  0  0  0  0  0  0  0  0  0  0  0
   10.9560    1.2606    0.0000 H   0  0  0  0  0  0  0  0  0  0  0  0
    8.9595   -1.7556    0.0000 H   0  0  0  0  0  0  0  0  0  0  0  0
    9.2172   -2.5440    0.0000 H   0  0  0  0  0  0  0  0  0  0  0  0
   10.6961    0.1134    0.0000 H   0  0  0  0  0  0  0  0  0  0  0  0
    9.8256    0.2187    0.0000 H   0  0  0  0  0  0  0  0  0  0  0  0
    9.7203   -0.6517    0.0000 H   0  0  0  0  0  0  0  0  0  0  0  0
   10.9718    0.7430    0.0000 H   0  0  0  0  0  0  0  0  0  0  0  0
   10.1178    0.5443    0.0000 H   0  0  0  0  0  0  0  0  0  0  0  0
   10.3165   -0.3097    0.0000 H   0  0  0  0  0  0  0  0  0  0  0  0
   13.9923   -0.5722    0.0000 H   0  0  0  0  0  0  0  0  0  0  0  0
   14.7557   -0.3389    0.0000 H   0  0  0  0  0  0  0  0  0  0  0  0
   11.6490    2.0424    0.0000 H   0  0  0  0  0  0  0  0  0  0  0  0
   12.8916   -0.8945    0.0000 H   0  0  0  0  0  0  0  0  0  0  0  0
   13.6705   -1.2972    0.0000 H   0  0  0  0  0  0  0  0  0  0  0  0
   14.0732   -0.5184    0.0000 H   0  0  0  0  0  0  0  0  0  0  0  0
   15.3485    0.3017    0.0000 H   0  0  0  0  0  0  0  0  0  0  0  0
   15.5222    1.0809    0.0000 H   0  0  0  0  0  0  0  0  0  0  0  0
   14.4517    2.4180    0.0000 H   0  0  0  0  0  0  0  0  0  0  0  0
   11.9138   -3.3782    0.0000 H   0  0  0  0  0  0  0  0  0  0  0  0
   11.2235   -2.9797    0.0000 H   0  0  0  0  0  0  0  0  0  0  0  0
   13.0317   -3.2912    0.0000 H   0  0  0  0  0  0  0  0  0  0  0  0
    9.3312   -2.9703    0.0000 H   0  0  0  0  0  0  0  0  0  0  0  0
    8.7112   -3.5903    0.0000 H   0  0  0  0  0  0  0  0  0  0  0  0
    9.3312   -4.2103    0.0000 H   0  0  0  0  0  0  0  0  0  0  0  0
    9.9740    1.4551    0.0000 H   0  0  0  0  0  0  0  0  0  0  0  0
   14.3911    2.9059    0.0000 H   0  0  0  0  0  0  0  0  0  0  0  0
   13.9095    3.6386    0.0000 H   0  0  0  0  0  0  0  0  0  0  0  0
   13.1768    3.1569    0.0000 H   0  0  0  0  0  0  0  0  0  0  0  0
   13.2469    3.1801    0.0000 H   0  0  0  0  0  0  0  0  0  0  0  0
   12.3716    3.1294    0.0000 H   0  0  0  0  0  0  0  0  0  0  0  0
   12.4224    2.2540    0.0000 H   0  0  0  0  0  0  0  0  0  0  0  0
   11.2486   -4.6683    0.0000 H   0  0  0  0  0  0  0  0  0  0  0  0
   11.9388   -5.0669    0.0000 H   0  0  0  0  0  0  0  0  0  0  0  0
   10.0021   -5.4003    0.0000 H   0  0  0  0  0  0  0  0  0  0  0  0
   15.8758    1.9002    0.0000 H   0  0  0  0  0  0  0  0  0  0  0  0
    9.4651   -6.7103    0.0000 H   0  0  0  0  0  0  0  0  0  0  0  0
   13.1412   -3.9194    0.0000 H   0  0  0  0  0  0  0  0  0  0  0  0
   16.3561    3.2320    0.0000 H   0  0  0  0  0  0  0  0  0  0  0  0
    8.0622   -6.9003    0.0000 H   0  0  0  0  0  0  0  0  0  0  0  0
    7.7331   -4.4703    0.0000 H   0  0  0  0  0  0  0  0  0  0  0  0
    7.1962   -5.7803    0.0000 H   0  0  0  0  0  0  0  0  0  0  0  0
   18.5462    2.7616    0.0000 H   0  0  0  0  0  0  0  0  0  0  0  0
   17.1605    0.7385    0.0000 H   0  0  0  0  0  0  0  0  0  0  0  0
   18.4373    1.3500    0.0000 H   0  0  0  0  0  0  0  0  0  0  0  0
   10.3312   -7.2103    0.0000 H   0  0  0  0  0  0  0  0  0  0  0  0
    6.2565   -4.4826    0.0000 H   0  0  0  0  0  0  0  0  0  0  0  0
    6.6550   -5.1729    0.0000 H   0  0  0  0  0  0  0  0  0  0  0  0
    8.0622   -7.9003    0.0000 H   0  0  0  0  0  0  0  0  0  0  0  0
   17.2691    0.1617    0.0000 H   0  0  0  0  0  0  0  0  0  0  0  0
   17.8603   -0.3729    0.0000 H   0  0  0  0  0  0  0  0  0  0  0  0
   14.3312   -5.9423    0.0000 H   0  0  0  0  0  0  0  0  0  0  0  0
   14.9512   -5.3223    0.0000 H   0  0  0  0  0  0  0  0  0  0  0  0
   14.3312   -4.7023    0.0000 H   0  0  0  0  0  0  0  0  0  0  0  0
   12.2942   -5.8783    0.0000 H   0  0  0  0  0  0  0  0  0  0  0  0
   12.5212   -6.7253    0.0000 H   0  0  0  0  0  0  0  0  0  0  0  0
   13.3681   -6.4983    0.0000 H   0  0  0  0  0  0  0  0  0  0  0  0
    6.3301   -6.2803    0.0000 H   0  0  0  0  0  0  0  0  0  0  0  0
   17.5163    4.2052    0.0000 H   0  0  0  0  0  0  0  0  0  0  0  0
   19.2169    3.5034    0.0000 H   0  0  0  0  0  0  0  0  0  0  0  0
   19.6405    2.1900    0.0000 H   0  0  0  0  0  0  0  0  0  0  0  0
   16.6032    5.2871    0.0000 H   0  0  0  0  0  0  0  0  0  0  0  0
   19.0513   -0.5534    0.0000 H   0  0  0  0  0  0  0  0  0  0  0  0
    6.5380   -2.7803    0.0000 H   0  0  0  0  0  0  0  0  0  0  0  0
   17.0835    6.6189    0.0000 H   0  0  0  0  0  0  0  0  0  0  0  0
   19.1648    4.7369    0.0000 H   0  0  0  0  0  0  0  0  0  0  0  0
   19.2736    6.1485    0.0000 H   0  0  0  0  0  0  0  0  0  0  0  0
    6.0010   -1.4703    0.0000 H   0  0  0  0  0  0  0  0  0  0  0  0
   15.8510    6.5470    0.0000 H   0  0  0  0  0  0  0  0  0  0  0  0
   20.5663    5.2020    0.0000 H   0  0  0  0  0  0  0  0  0  0  0  0
   19.9751    5.7366    0.0000 H   0  0  0  0  0  0  0  0  0  0  0  0
    4.5981   -1.2803    0.0000 H   0  0  0  0  0  0  0  0  0  0  0  0
   17.7986    7.9003    0.0000 H   0  0  0  0  0  0  0  0  0  0  0  0
    4.2690   -3.7103    0.0000 H   0  0  0  0  0  0  0  0  0  0  0  0
    4.8311   -1.4703    0.0000 H   0  0  0  0  0  0  0  0  0  0  0  0
   19.9443    6.8902    0.0000 H   0  0  0  0  0  0  0  0  0  0  0  0
    6.8671   -0.9703    0.0000 H   0  0  0  0  0  0  0  0  0  0  0  0
    3.0044   -4.0652    0.0000 H   0  0  0  0  0  0  0  0  0  0  0  0
    3.8015   -4.0652    0.0000 H   0  0  0  0  0  0  0  0  0  0  0  0
   20.8653    4.0351    0.0000 H   0  0  0  0  0  0  0  0  0  0  0  0
    4.5981   -0.2803    0.0000 H   0  0  0  0  0  0  0  0  0  0  0  0
    3.4030   -0.9703    0.0000 H   0  0  0  0  0  0  0  0  0  0  0  0
    2.0000   -3.4003    0.0000 H   0  0  0  0  0  0  0  0  0  0  0  0
 32  1  1  1  0  0  0
  1107  1  0  0  0  0
 34  2  1  1  0  0  0
  2111  1  0  0  0  0
 39  3  1  6  0  0  0
 51  3  1  1  0  0  0
 45  4  1  1  0  0  0
 52  4  1  1  0  0  0
  5 51  1  0  0  0  0
  5 57  1  0  0  0  0
  6 52  1  0  0  0  0
  6 60  1  0  0  0  0
 53  7  1  6  0  0  0
  7131  1  0  0  0  0
 55  8  1  6  0  0  0
 67  8  1  1  0  0  0
 56  9  1  1  0  0  0
  9134  1  0  0  0  0
 58 10  1  6  0  0  0
 10143  1  0  0  0  0
 59 11  1  1  0  0  0
 11145  1  0  0  0  0
 62 12  1  6  0  0  0
 12146  1  0  0  0  0
 13 63  1  0  0  0  0
 69 13  1  6  0  0  0
 14 67  1  0  0  0  0
 14 71  1  0  0  0  0
 15 64  1  0  0  0  0
 15148  1  0  0  0  0
 68 16  1  6  0  0  0
 16154  1  0  0  0  0
 17 69  1  0  0  0  0
 17 76  1  0  0  0  0
 70 18  1  1  0  0  0
 18158  1  0  0  0  0
 72 19  1  6  0  0  0
 19161  1  0  0  0  0
 73 20  1  1  0  0  0
 20162  1  0  0  0  0
 21 74  1  0  0  0  0
 21165  1  0  0  0  0
 75 22  1  6  0  0  0
 22166  1  0  0  0  0
 77 23  1  1  0  0  0
 23167  1  0  0  0  0
 24 78  1  0  0  0  0
 24168  1  0  0  0  0
 25 26  1  0  0  0  0
 25 27  1  0  0  0  0
 25 31  1  0  0  0  0
 25 37  1  6  0  0  0
 26 28  1  0  0  0  0
 26 34  1  0  0  0  0
 26 38  1  1  0  0  0
 27 30  1  0  0  0  0
 27 32  1  0  0  0  0
 27 79  1  1  0  0  0
 28 29  1  0  0  0  0
 28 33  1  0  0  0  0
 28 80  1  6  0  0  0
 29 36  1  0  0  0  0
 29 40  1  0  0  0  0
 29 43  1  1  0  0  0
 30 35  1  0  0  0  0
 30 39  1  0  0  0  0
 30 81  1  6  0  0  0
 31 35  1  0  0  0  0
 31 82  1  0  0  0  0
 31 83  1  0  0  0  0
 32 33  1  0  0  0  0
 32 84  1  0  0  0  0
 33 85  1  0  0  0  0
 33 86  1  0  0  0  0
 34 41  1  0  0  0  0
 34 87  1  0  0  0  0
 35 88  1  0  0  0  0
 35 89  1  0  0  0  0
 36 41  2  0  0  0  0
 36 42  1  0  0  0  0
 37 90  1  0  0  0  0
 37 91  1  0  0  0  0
 37 92  1  0  0  0  0
 38 93  1  0  0  0  0
 38 94  1  0  0  0  0
 38 95  1  0  0  0  0
 39 46  1  0  0  0  0
 39 47  1  0  0  0  0
 40 44  1  0  0  0  0
 40 96  1  0  0  0  0
 40 97  1  0  0  0  0
 41 98  1  0  0  0  0
 42 45  1  0  0  0  0
 42 48  1  0  0  0  0
 42 49  1  0  0  0  0
 43 99  1  0  0  0  0
 43100  1  0  0  0  0
 43101  1  0  0  0  0
 44 45  1  0  0  0  0
 44102  1  0  0  0  0
 44103  1  0  0  0  0
 45104  1  0  0  0  0
 46 50  1  0  0  0  0
 46105  1  0  0  0  0
 46106  1  0  0  0  0
 47108  1  0  0  0  0
 47109  1  0  0  0  0
 47110  1  0  0  0  0
 48112  1  0  0  0  0
 48113  1  0  0  0  0
 48114  1  0  0  0  0
 49115  1  0  0  0  0
 49116  1  0  0  0  0
 49117  1  0  0  0  0
 50 54  1  0  0  0  0
 50118  1  0  0  0  0
 50119  1  0  0  0  0
 51 53  1  0  0  0  0
 51120  1  0  0  0  0
 52 55  1  0  0  0  0
 52121  1  0  0  0  0
 53 56  1  0  0  0  0
 53122  1  0  0  0  0
 54 61  2  0  0  0  0
 54123  1  0  0  0  0
 55 59  1  0  0  0  0
 55124  1  0  0  0  0
 56 58  1  0  0  0  0
 56125  1  0  0  0  0
 57 58  1  0  0  0  0
 57 63  1  1  0  0  0
 57126  1  0  0  0  0
 58127  1  0  0  0  0
 59 62  1  0  0  0  0
 59128  1  0  0  0  0
 60 62  1  0  0  0  0
 60 64  1  1  0  0  0
 60129  1  0  0  0  0
 61 65  1  0  0  0  0
 61 66  1  0  0  0  0
 62130  1  0  0  0  0
 63132  1  0  0  0  0
 63133  1  0  0  0  0
 64135  1  0  0  0  0
 64136  1  0  0  0  0
 65137  1  0  0  0  0
 65138  1  0  0  0  0
 65139  1  0  0  0  0
 66140  1  0  0  0  0
 66141  1  0  0  0  0
 66142  1  0  0  0  0
 67 68  1  0  0  0  0
 67144  1  0  0  0  0
 68 70  1  0  0  0  0
 68147  1  0  0  0  0
 69 73  1  0  0  0  0
 69149  1  0  0  0  0
 70 72  1  0  0  0  0
 70150  1  0  0  0  0
 71 72  1  0  0  0  0
 71 74  1  1  0  0  0
 71151  1  0  0  0  0
 72152  1  0  0  0  0
 73 75  1  0  0  0  0
 73153  1  0  0  0  0
 74155  1  0  0  0  0
 74156  1  0  0  0  0
 75 77  1  0  0  0  0
 75157  1  0  0  0  0
 76 77  1  0  0  0  0
 76 78  1  6  0  0  0
 76159  1  0  0  0  0
 77160  1  0  0  0  0
 78163  1  0  0  0  0
 78164  1  0  0  0  0
M  END
> <PUBCHEM_COMPOUND_CID>
10748754

> <PUBCHEM_COMPOUND_CANONICALIZED>
1

> <PUBCHEM_CACTVS_COMPLEXITY>
2100

> <PUBCHEM_CACTVS_HBOND_ACCEPTOR>
24

> <PUBCHEM_CACTVS_HBOND_DONOR>
16

> <PUBCHEM_CACTVS_ROTATABLE_BOND>
16

> <PUBCHEM_CACTVS_SUBSKEYS>
AAADcfB8PgAAAAAAAAAAAAAAAAAAAYAAAAA0aJEiAAAAAGCAAAAAGgAACAAAD1SwgAMCCAAABgCAAiBCAAAAAAAgAAAACAAAAAgRFAIAAQAiUAAFwAAPEAPA4PwPgAAAAAAAAADAAAYAADAAAQAACAAAAA==

> <PUBCHEM_IUPAC_OPENEYE_NAME>
(2R,3R,4S,5S,6R)-2-[[(2R,3S,4S,5R,6S)-6-[(1S)-1-[(3S,7S,8R,9R,10R,12R,13R,14R,17S)-3-[(2R,3R,4S,5S,6R)-4,5-dihydroxy-6-(hydroxymethyl)-3-[(2S,3R,4S,5S,6R)-3,4,5-trihydroxy-6-(hydroxymethyl)tetrahydropyran-2-yl]oxy-tetrahydropyran-2-yl]oxy-7,12-dihydroxy-4,4,8,10,14-pentamethyl-2,3,7,9,11,12,13,15,16,17-decahydro-1H-cyclopenta[a]phenanthren-17-yl]-1,5-dimethyl-hex-4-enoxy]-3,4,5-trihydroxy-tetrahydropyran-2-yl]methoxy]-6-(hydroxymethyl)tetrahydropyran-3,4,5-triol

> <PUBCHEM_IUPAC_CAS_NAME>
(2R,3R,4S,5S,6R)-2-[[(2R,3S,4S,5R,6S)-6-[(2S)-2-[(3S,7S,8R,9R,10R,12R,13R,14R,17S)-3-[[(2R,3R,4S,5S,6R)-4,5-dihydroxy-6-(hydroxymethyl)-3-[[(2S,3R,4S,5S,6R)-3,4,5-trihydroxy-6-(hydroxymethyl)-2-oxanyl]oxy]-2-oxanyl]oxy]-7,12-dihydroxy-4,4,8,10,14-pentamethyl-2,3,7,9,11,12,13,15,16,17-decahydro-1H-cyclopenta[a]phenanthren-17-yl]-6-methylhept-5-en-2-yl]oxy-3,4,5-trihydroxy-2-oxanyl]methoxy]-6-(hydroxymethyl)oxane-3,4,5-triol

> <PUBCHEM_IUPAC_NAME>
(2R,3R,4S,5S,6R)-2-[[(2R,3S,4S,5R,6S)-6-[(2S)-2-[(3S,7S,8R,9R,10R,12R,13R,14R,17S)-3-[(2R,3R,4S,5S,6R)-4,5-dihydroxy-6-(hydroxymethyl)-3-[(2S,3R,4S,5S,6R)-3,4,5-trihydroxy-6-(hydroxymethyl)oxan-2-yl]oxyoxan-2-yl]oxy-7,12-dihydroxy-4,4,8,10,14-pentamethyl-2,3,7,9,11,12,13,15,16,17-decahydro-1H-cyclopenta[a]phenanthren-17-yl]-6-methylhept-5-en-2-yl]oxy-3,4,5-trihydroxyoxan-2-yl]methoxy]-6-(hydroxymethyl)oxane-3,4,5-triol

> <PUBCHEM_IUPAC_SYSTEMATIC_NAME>
(2R,3S,4S,5R,6R)-2-(hydroxymethyl)-6-[[(2R,3S,4S,5R,6S)-6-[(2S)-2-[(3S,7S,8R,9R,10R,12R,13R,14R,17S)-3-[(2R,3R,4S,5S,6R)-6-(hydroxymethyl)-3-[(2S,3R,4S,5S,6R)-6-(hydroxymethyl)-3,4,5-tris(oxidanyl)oxan-2-yl]oxy-4,5-bis(oxidanyl)oxan-2-yl]oxy-4,4,8,10,14-pentamethyl-7,12-bis(oxidanyl)-2,3,7,9,11,12,13,15,16,17-decahydro-1H-cyclopenta[a]phenanthren-17-yl]-6-methyl-hept-5-en-2-yl]oxy-3,4,5-tris(oxidanyl)oxan-2-yl]methoxy]oxane-3,4,5-triol

> <PUBCHEM_IUPAC_TRADITIONAL_NAME>
(2R,3R,4S,5S,6R)-2-[[(2R,3S,4S,5R,6S)-6-[(1S)-1-[(3S,7S,8R,9R,10R,12R,13R,14R,17S)-3-[(2R,3R,4S,5S,6R)-4,5-dihydroxy-6-methylol-3-[(2S,3R,4S,5S,6R)-3,4,5-trihydroxy-6-methylol-tetrahydropyran-2-yl]oxy-tetrahydropyran-2-yl]oxy-7,12-dihydroxy-4,4,8,10,14-pentamethyl-2,3,7,9,11,12,13,15,16,17-decahydro-1H-cyclopenta[a]phenanthren-17-yl]-1,5-dimethyl-hex-4-enoxy]-3,4,5-trihydroxy-tetrahydropyran-2-yl]methoxy]-6-methylol-tetrahydropyran-3,4,5-triol

> <PUBCHEM_IUPAC_INCHI>
InChI=1S/C54H90O24/c1-22(2)10-9-13-53(7,78-48-44(70)40(66)37(63)28(75-48)21-71-46-42(68)38(64)34(60)25(18-55)72-46)23-11-15-52(6)33(23)24(58)16-30-51(5)14-12-32(50(3,4)29(51)17-31(59)54(30,52)8)76-49-45(41(67)36(62)27(20-57)74-49)77-47-43(69)39(65)35(61)26(19-56)73-47/h10,17,23-28,30-49,55-70H,9,11-16,18-21H2,1-8H3/t23-,24+,25+,26+,27+,28+,30+,31-,32-,33-,34+,35+,36+,37+,38-,39-,40-,41-,42+,43+,44+,45+,46+,47-,48-,49-,51-,52+,53-,54-/m0/s1

> <PUBCHEM_IUPAC_INCHIKEY>
SKOMPTIDEDWVJD-GVYXYICBSA-N

> <PUBCHEM_XLOGP3_AA>
-1.6

> <PUBCHEM_EXACT_MASS>
1122.582

> <PUBCHEM_MOLECULAR_FORMULA>
C54H90O24

> <PUBCHEM_MOLECULAR_WEIGHT>
1123.29

> <PUBCHEM_OPENEYE_CAN_SMILES>
CC(=CCCC(C)(C1CCC2(C1C(CC3C2(C(C=C4C3(CCC(C4(C)C)OC5C(C(C(C(O5)CO)O)O)OC6C(C(C(C(O6)CO)O)O)O)C)O)C)O)C)OC7C(C(C(C(O7)COC8C(C(C(C(O8)CO)O)O)O)O)O)O)C

> <PUBCHEM_OPENEYE_ISO_SMILES>
CC(=CCC[C@@](C)([C@H]1CC[C@@]2([C@@H]1[C@@H](C[C@H]3[C@]2([C@H](C=C4[C@@]3(CC[C@@H](C4(C)C)O[C@H]5[C@@H]([C@H]([C@@H]([C@H](O5)CO)O)O)O[C@H]6[C@@H]([C@H]([C@@H]([C@H](O6)CO)O)O)O)C)O)C)O)C)O[C@H]7[C@@H]([C@H]([C@@H]([C@H](O7)CO[C@H]8[C@@H]([C@H]([C@@H]([C@H](O8)CO)O)O)O)O)O)O)C

> <PUBCHEM_CACTVS_TPSA>
398

> <PUBCHEM_MONOISOTOPIC_WEIGHT>
1122.582

> <PUBCHEM_TOTAL_CHARGE>
0

> <PUBCHEM_HEAVY_ATOM_COUNT>
78

> <PUBCHEM_ATOM_DEF_STEREO_COUNT>
30

> <PUBCHEM_ATOM_UDEF_STEREO_COUNT>
0

> <PUBCHEM_BOND_DEF_STEREO_COUNT>
0

> <PUBCHEM_BOND_UDEF_STEREO_COUNT>
0

> <PUBCHEM_ISOTOPIC_ATOM_COUNT>
0

> <PUBCHEM_COMPONENT_COUNT>
1

> <PUBCHEM_CACTVS_TAUTO_COUNT>
1

> <PUBCHEM_COORDINATE_TYPE>
1
5
255

> <PUBCHEM_BONDANNOTATIONS>
32  1  5
58  10  6
59  11  5
62  12  6
69  13  6
68  16  6
70  18  5
72  19  6
34  2  5
73  20  5
75  22  6
77  23  5
25  37  6
26  38  5
27  79  5
28  80  6
29  43  5
39  3  6
51  3  5
30  81  6
45  4  5
52  4  5
57  63  5
60  64  5
53  7  6
71  74  5
76  78  6
55  8  6
67  8  5
56  9  5

$$$$
