11084908
  -OEChem-12071809232D

 37 38  0     1  0  0  0  0  0999 V2000
    2.9511    1.2306    0.0000 C   0  0  2  0  0  0  0  0  0  0  0  0
    3.9511    1.2306    0.0000 C   0  0  0  0  0  0  0  0  0  0  0  0
    2.6420    2.1816    0.0000 C   0  0  0  0  0  0  0  0  0  0  0  0
    4.2601    2.1816    0.0000 C   0  0  0  0  0  0  0  0  0  0  0  0
    3.4511    2.7694    0.0000 C   0  0  0  0  0  0  0  0  0  0  0  0
    2.9511    0.2306    0.0000 C   0  0  0  0  0  0  0  0  0  0  0  0
    2.0000    0.9216    0.0000 C   0  0  0  0  0  0  0  0  0  0  0  0
    4.9021    0.9216    0.0000 C   0  0  0  0  0  0  0  0  0  0  0  0
    4.4511    0.3646    0.0000 C   0  0  0  0  0  0  0  0  0  0  0  0
    2.0850   -0.2694    0.0000 C   0  0  0  0  0  0  0  0  0  0  0  0
    3.8171   -0.2694    0.0000 C   0  0  0  0  0  0  0  0  0  0  0  0
    2.0850   -1.2694    0.0000 C   0  0  0  0  0  0  0  0  0  0  0  0
    3.8171   -1.2694    0.0000 C   0  0  0  0  0  0  0  0  0  0  0  0
    2.9511   -1.7694    0.0000 C   0  0  0  0  0  0  0  0  0  0  0  0
    2.9511   -2.7694    0.0000 C   0  0  0  0  0  0  0  0  0  0  0  0
    2.3320    2.7186    0.0000 H   0  0  0  0  0  0  0  0  0  0  0  0
    2.0756    1.9295    0.0000 H   0  0  0  0  0  0  0  0  0  0  0  0
    4.8265    1.9295    0.0000 H   0  0  0  0  0  0  0  0  0  0  0  0
    4.5701    2.7186    0.0000 H   0  0  0  0  0  0  0  0  0  0  0  0
    3.8659    3.2302    0.0000 H   0  0  0  0  0  0  0  0  0  0  0  0
    3.0362    3.2302    0.0000 H   0  0  0  0  0  0  0  0  0  0  0  0
    1.8084    1.5112    0.0000 H   0  0  0  0  0  0  0  0  0  0  0  0
    1.4103    0.7300    0.0000 H   0  0  0  0  0  0  0  0  0  0  0  0
    2.1916    0.3319    0.0000 H   0  0  0  0  0  0  0  0  0  0  0  0
    4.7105    0.3319    0.0000 H   0  0  0  0  0  0  0  0  0  0  0  0
    5.4918    0.7300    0.0000 H   0  0  0  0  0  0  0  0  0  0  0  0
    5.0937    1.5112    0.0000 H   0  0  0  0  0  0  0  0  0  0  0  0
    3.9142    0.0545    0.0000 H   0  0  0  0  0  0  0  0  0  0  0  0
    4.7612   -0.1723    0.0000 H   0  0  0  0  0  0  0  0  0  0  0  0
    4.9880    0.6747    0.0000 H   0  0  0  0  0  0  0  0  0  0  0  0
    1.5481    0.0406    0.0000 H   0  0  0  0  0  0  0  0  0  0  0  0
    4.3540    0.0406    0.0000 H   0  0  0  0  0  0  0  0  0  0  0  0
    1.5481   -1.5794    0.0000 H   0  0  0  0  0  0  0  0  0  0  0  0
    4.3540   -1.5794    0.0000 H   0  0  0  0  0  0  0  0  0  0  0  0
    2.3311   -2.7694    0.0000 H   0  0  0  0  0  0  0  0  0  0  0  0
    2.9511   -3.3894    0.0000 H   0  0  0  0  0  0  0  0  0  0  0  0
    3.5711   -2.7694    0.0000 H   0  0  0  0  0  0  0  0  0  0  0  0
  1  2  1  0  0  0  0
  1  3  1  0  0  0  0
  1  6  1  0  0  0  0
  1  7  1  6  0  0  0
  2  4  1  0  0  0  0
  2  8  1  0  0  0  0
  2  9  1  0  0  0  0
  3  5  1  0  0  0  0
  3 16  1  0  0  0  0
  3 17  1  0  0  0  0
  4  5  1  0  0  0  0
  4 18  1  0  0  0  0
  4 19  1  0  0  0  0
  5 20  1  0  0  0  0
  5 21  1  0  0  0  0
  6 10  2  0  0  0  0
  6 11  1  0  0  0  0
  7 22  1  0  0  0  0
  7 23  1  0  0  0  0
  7 24  1  0  0  0  0
  8 25  1  0  0  0  0
  8 26  1  0  0  0  0
  8 27  1  0  0  0  0
  9 28  1  0  0  0  0
  9 29  1  0  0  0  0
  9 30  1  0  0  0  0
 10 12  1  0  0  0  0
 10 31  1  0  0  0  0
 11 13  2  0  0  0  0
 11 32  1  0  0  0  0
 12 14  2  0  0  0  0
 12 33  1  0  0  0  0
 13 14  1  0  0  0  0
 13 34  1  0  0  0  0
 14 15  1  0  0  0  0
 15 35  1  0  0  0  0
 15 36  1  0  0  0  0
 15 37  1  0  0  0  0
M  END
> <PUBCHEM_COMPOUND_CID>
11084908

> <PUBCHEM_COMPOUND_CANONICALIZED>
1

> <PUBCHEM_CACTVS_COMPLEXITY>
220

> <PUBCHEM_CACTVS_HBOND_ACCEPTOR>
0

> <PUBCHEM_CACTVS_HBOND_DONOR>
0

> <PUBCHEM_CACTVS_ROTATABLE_BOND>
1

> <PUBCHEM_CACTVS_SUBSKEYS>
AAADceBwAAAAAAAAAAAAAAAAAAAAAYAAAAAwAAAAAAAAAAABAAAAGAAAAAAADgCAGAAyAIAAAACAAiBCAAACAAAgAAAIiAAAAIgIICKAERCAIAAggAAIiAcAgMAPwAAAAAAAAACAAAAAAAAAAAAACAAAAA==

> <PUBCHEM_IUPAC_OPENEYE_NAME>
1-methyl-4-[(1S)-1,2,2-trimethylcyclopentyl]benzene

> <PUBCHEM_IUPAC_CAS_NAME>
1-methyl-4-[(1S)-1,2,2-trimethylcyclopentyl]benzene

> <PUBCHEM_IUPAC_NAME>
1-methyl-4-[(1S)-1,2,2-trimethylcyclopentyl]benzene

> <PUBCHEM_IUPAC_SYSTEMATIC_NAME>
1-methyl-4-[(1S)-1,2,2-trimethylcyclopentyl]benzene

> <PUBCHEM_IUPAC_TRADITIONAL_NAME>
1-methyl-4-[(1S)-1,2,2-trimethylcyclopentyl]benzene

> <PUBCHEM_IUPAC_INCHI>
InChI=1S/C15H22/c1-12-6-8-13(9-7-12)15(4)11-5-10-14(15,2)3/h6-9H,5,10-11H2,1-4H3/t15-/m1/s1

> <PUBCHEM_IUPAC_INCHIKEY>
SLKPBCXNFNIJSV-OAHLLOKOSA-N

> <PUBCHEM_XLOGP3_AA>
5.5

> <PUBCHEM_EXACT_MASS>
202.172

> <PUBCHEM_MOLECULAR_FORMULA>
C15H22

> <PUBCHEM_MOLECULAR_WEIGHT>
202.341

> <PUBCHEM_OPENEYE_CAN_SMILES>
CC1=CC=C(C=C1)C2(CCCC2(C)C)C

> <PUBCHEM_OPENEYE_ISO_SMILES>
CC1=CC=C(C=C1)[C@]2(CCCC2(C)C)C

> <PUBCHEM_CACTVS_TPSA>
0

> <PUBCHEM_MONOISOTOPIC_WEIGHT>
202.172

> <PUBCHEM_TOTAL_CHARGE>
0

> <PUBCHEM_HEAVY_ATOM_COUNT>
15

> <PUBCHEM_ATOM_DEF_STEREO_COUNT>
1

> <PUBCHEM_ATOM_UDEF_STEREO_COUNT>
0

> <PUBCHEM_BOND_DEF_STEREO_COUNT>
0

> <PUBCHEM_BOND_UDEF_STEREO_COUNT>
0

> <PUBCHEM_ISOTOPIC_ATOM_COUNT>
0

> <PUBCHEM_COMPONENT_COUNT>
1

> <PUBCHEM_CACTVS_TAUTO_COUNT>
1

> <PUBCHEM_COORDINATE_TYPE>
1
5
255

> <PUBCHEM_BONDANNOTATIONS>
1  7  6
10  12  8
11  13  8
12  14  8
13  14  8
6  10  8
6  11  8

$$$$
