9965750
  -OEChem-12071809192D

 53 54  0     1  0  0  0  0  0999 V2000
    6.9819    3.1887    0.0000 O   0  0  0  0  0  0  0  0  0  0  0  0
    4.5981    0.7708    0.0000 C   0  0  1  0  0  0  0  0  0  0  0  0
    4.5981    1.7708    0.0000 C   0  0  3  0  0  0  0  0  0  0  0  0
    5.4920    2.3054    0.0000 C   0  0  2  0  0  0  0  0  0  0  0  0
    3.7320    0.2708    0.0000 C   0  0  2  0  0  0  0  0  0  0  0  0
    5.4920    0.2361    0.0000 C   0  0  0  0  0  0  0  0  0  0  0  0
    3.7320    2.2708    0.0000 C   0  0  0  0  0  0  0  0  0  0  0  0
    6.3981    1.7916    0.0000 C   0  0  0  0  0  0  0  0  0  0  0  0
    6.3981    0.7500    0.0000 C   0  0  0  0  0  0  0  0  0  0  0  0
    4.5981   -0.2292    0.0000 C   0  0  0  0  0  0  0  0  0  0  0  0
    2.8660    1.7708    0.0000 C   0  0  0  0  0  0  0  0  0  0  0  0
    2.8660    0.7708    0.0000 C   0  0  0  0  0  0  0  0  0  0  0  0
    5.9820    3.1772    0.0000 C   0  0  0  0  0  0  0  0  0  0  0  0
    4.9820    3.1656    0.0000 C   0  0  0  0  0  0  0  0  0  0  0  0
    3.7320   -0.7292    0.0000 C   0  0  0  0  0  0  0  0  0  0  0  0
    2.0000    0.2708    0.0000 C   0  0  0  0  0  0  0  0  0  0  0  0
    2.8660   -1.2292    0.0000 C   0  0  0  0  0  0  0  0  0  0  0  0
    2.8660   -2.2292    0.0000 C   0  0  0  0  0  0  0  0  0  0  0  0
    2.0000   -2.7292    0.0000 C   0  0  0  0  0  0  0  0  0  0  0  0
    3.7320   -2.7292    0.0000 C   0  0  0  0  0  0  0  0  0  0  0  0
    3.7320   -3.7292    0.0000 C   0  0  0  0  0  0  0  0  0  0  0  0
    4.5915    2.6208    0.0000 H   0  0  0  0  0  0  0  0  0  0  0  0
    3.1951   -0.0392    0.0000 H   0  0  0  0  0  0  0  0  0  0  0  0
    5.0874   -0.2337    0.0000 H   0  0  0  0  0  0  0  0  0  0  0  0
    5.8856   -0.2429    0.0000 H   0  0  0  0  0  0  0  0  0  0  0  0
    4.1306    2.7457    0.0000 H   0  0  0  0  0  0  0  0  0  0  0  0
    3.3335    2.7457    0.0000 H   0  0  0  0  0  0  0  0  0  0  0  0
    7.0089    1.6855    0.0000 H   0  0  0  0  0  0  0  0  0  0  0  0
    6.6071    2.3753    0.0000 H   0  0  0  0  0  0  0  0  0  0  0  0
    6.6071    0.1663    0.0000 H   0  0  0  0  0  0  0  0  0  0  0  0
    7.0089    0.8560    0.0000 H   0  0  0  0  0  0  0  0  0  0  0  0
    3.9781   -0.2292    0.0000 H   0  0  0  0  0  0  0  0  0  0  0  0
    4.5981   -0.8492    0.0000 H   0  0  0  0  0  0  0  0  0  0  0  0
    5.2181   -0.2292    0.0000 H   0  0  0  0  0  0  0  0  0  0  0  0
    2.6540    2.3534    0.0000 H   0  0  0  0  0  0  0  0  0  0  0  0
    2.2554    1.6631    0.0000 H   0  0  0  0  0  0  0  0  0  0  0  0
    6.0826    3.7890    0.0000 H   0  0  0  0  0  0  0  0  0  0  0  0
    5.3970    3.3825    0.0000 H   0  0  0  0  0  0  0  0  0  0  0  0
    5.5154    3.4818    0.0000 H   0  0  0  0  0  0  0  0  0  0  0  0
    4.6658    3.6989    0.0000 H   0  0  0  0  0  0  0  0  0  0  0  0
    4.4487    2.8494    0.0000 H   0  0  0  0  0  0  0  0  0  0  0  0
    3.9441   -1.3118    0.0000 H   0  0  0  0  0  0  0  0  0  0  0  0
    4.3426   -0.6216    0.0000 H   0  0  0  0  0  0  0  0  0  0  0  0
    1.4631    0.5808    0.0000 H   0  0  0  0  0  0  0  0  0  0  0  0
    2.0000   -0.3492    0.0000 H   0  0  0  0  0  0  0  0  0  0  0  0
    2.3291   -0.9192    0.0000 H   0  0  0  0  0  0  0  0  0  0  0  0
    7.2857    3.7292    0.0000 H   0  0  0  0  0  0  0  0  0  0  0  0
    1.6900   -2.1923    0.0000 H   0  0  0  0  0  0  0  0  0  0  0  0
    1.4631   -3.0392    0.0000 H   0  0  0  0  0  0  0  0  0  0  0  0
    2.3100   -3.2662    0.0000 H   0  0  0  0  0  0  0  0  0  0  0  0
    4.2690   -2.4192    0.0000 H   0  0  0  0  0  0  0  0  0  0  0  0
    3.1951   -4.0392    0.0000 H   0  0  0  0  0  0  0  0  0  0  0  0
    4.2690   -4.0392    0.0000 H   0  0  0  0  0  0  0  0  0  0  0  0
  1 13  1  0  0  0  0
  1 47  1  0  0  0  0
  2  3  1  0  0  0  0
  2  5  1  0  0  0  0
  2  6  1  0  0  0  0
  2 10  1  1  0  0  0
  3  4  1  0  0  0  0
  3  7  1  0  0  0  0
  3 22  1  0  0  0  0
  4  8  1  0  0  0  0
  4 13  1  0  0  0  0
  4 14  1  6  0  0  0
  5 12  1  0  0  0  0
  5 15  1  1  0  0  0
  5 23  1  0  0  0  0
  6  9  1  0  0  0  0
  6 24  1  0  0  0  0
  6 25  1  0  0  0  0
  7 11  1  0  0  0  0
  7 26  1  0  0  0  0
  7 27  1  0  0  0  0
  8  9  1  0  0  0  0
  8 28  1  0  0  0  0
  8 29  1  0  0  0  0
  9 30  1  0  0  0  0
  9 31  1  0  0  0  0
 10 32  1  0  0  0  0
 10 33  1  0  0  0  0
 10 34  1  0  0  0  0
 11 12  1  0  0  0  0
 11 35  1  0  0  0  0
 11 36  1  0  0  0  0
 12 16  2  0  0  0  0
 13 37  1  0  0  0  0
 13 38  1  0  0  0  0
 14 39  1  0  0  0  0
 14 40  1  0  0  0  0
 14 41  1  0  0  0  0
 15 17  1  0  0  0  0
 15 42  1  0  0  0  0
 15 43  1  0  0  0  0
 16 44  1  0  0  0  0
 16 45  1  0  0  0  0
 17 18  2  0  0  0  0
 17 46  1  0  0  0  0
 18 19  1  0  0  0  0
 18 20  1  0  0  0  0
 19 48  1  0  0  0  0
 19 49  1  0  0  0  0
 19 50  1  0  0  0  0
 20 21  2  0  0  0  0
 20 51  1  0  0  0  0
 21 52  1  0  0  0  0
 21 53  1  0  0  0  0
M  END
> <PUBCHEM_COMPOUND_CID>
9965750

> <PUBCHEM_COMPOUND_CANONICALIZED>
1

> <PUBCHEM_CACTVS_COMPLEXITY>
447

> <PUBCHEM_CACTVS_HBOND_ACCEPTOR>
1

> <PUBCHEM_CACTVS_HBOND_DONOR>
1

> <PUBCHEM_CACTVS_ROTATABLE_BOND>
4

> <PUBCHEM_CACTVS_SUBSKEYS>
AAADcfB4IAAAAAAAAAAAAAAAAAAAAAAAAAAwYAAAAAAAAADAAAAAGgAACAAADwCggAICAAAAAgCAAiBCAAAAAAAgAAAICAAAAAgIEAIAAQAAQAAEgAAIgAOAwPAPgAAAAAAAAAAAAAQAACAAAAAAAAAAAA==

> <PUBCHEM_IUPAC_OPENEYE_NAME>
[(1S,4aR,5S)-1,4a-dimethyl-6-methylene-5-[(2Z)-3-methylpenta-2,4-dienyl]decalin-1-yl]methanol

> <PUBCHEM_IUPAC_CAS_NAME>
[(1S,4aR,5S)-1,4a-dimethyl-6-methylene-5-[(2Z)-3-methylpenta-2,4-dienyl]-3,4,5,7,8,8a-hexahydro-2H-naphthalen-1-yl]methanol

> <PUBCHEM_IUPAC_NAME>
[(1S,4aR,5S)-1,4a-dimethyl-6-methylidene-5-[(2Z)-3-methylpenta-2,4-dienyl]-3,4,5,7,8,8a-hexahydro-2H-naphthalen-1-yl]methanol

> <PUBCHEM_IUPAC_SYSTEMATIC_NAME>
[(1S,4aR,5S)-1,4a-dimethyl-6-methylidene-5-[(2Z)-3-methylpenta-2,4-dienyl]-3,4,5,7,8,8a-hexahydro-2H-naphthalen-1-yl]methanol

> <PUBCHEM_IUPAC_TRADITIONAL_NAME>
[(1S,4aR,5S)-1,4a-dimethyl-6-methylene-5-[(2Z)-3-methylpenta-2,4-dienyl]decalin-1-yl]methanol

> <PUBCHEM_IUPAC_INCHI>
InChI=1S/C20H32O/c1-6-15(2)8-10-17-16(3)9-11-18-19(4,14-21)12-7-13-20(17,18)5/h6,8,17-18,21H,1,3,7,9-14H2,2,4-5H3/b15-8-/t17-,18?,19+,20+/m0/s1

> <PUBCHEM_IUPAC_INCHIKEY>
KDNYVXLYMQKQHH-RCRZPSPJSA-N

> <PUBCHEM_XLOGP3_AA>
5.8

> <PUBCHEM_EXACT_MASS>
288.245

> <PUBCHEM_MOLECULAR_FORMULA>
C20H32O

> <PUBCHEM_MOLECULAR_WEIGHT>
288.475

> <PUBCHEM_OPENEYE_CAN_SMILES>
CC(=CCC1C(=C)CCC2C1(CCCC2(C)CO)C)C=C

> <PUBCHEM_OPENEYE_ISO_SMILES>
C/C(=C/C[C@H]1C(=C)CCC2[C@@]1(CCC[C@]2(C)CO)C)/C=C

> <PUBCHEM_CACTVS_TPSA>
20.2

> <PUBCHEM_MONOISOTOPIC_WEIGHT>
288.245

> <PUBCHEM_TOTAL_CHARGE>
0

> <PUBCHEM_HEAVY_ATOM_COUNT>
21

> <PUBCHEM_ATOM_DEF_STEREO_COUNT>
3

> <PUBCHEM_ATOM_UDEF_STEREO_COUNT>
1

> <PUBCHEM_BOND_DEF_STEREO_COUNT>
1

> <PUBCHEM_BOND_UDEF_STEREO_COUNT>
0

> <PUBCHEM_ISOTOPIC_ATOM_COUNT>
0

> <PUBCHEM_COMPONENT_COUNT>
1

> <PUBCHEM_CACTVS_TAUTO_COUNT>
1

> <PUBCHEM_COORDINATE_TYPE>
1
5
255

> <PUBCHEM_BONDANNOTATIONS>
2  10  5
3  22  3
4  14  6
5  15  5

$$$$
