11968802
  -OEChem-12071809292D

149155  0     1  0  0  0  0  0999 V2000
   13.8137   -2.7197    0.0000 O   0  0  0  0  0  0  0  0  0  0  0  0
   12.9141    2.8461    0.0000 O   0  0  0  0  0  0  0  0  0  0  0  0
   10.4778    3.5425    0.0000 O   0  0  0  0  0  0  0  0  0  0  0  0
   17.4587   -1.6887    0.0000 O   0  0  0  0  0  0  0  0  0  0  0  0
   12.0816   -2.7197    0.0000 O   0  0  0  0  0  0  0  0  0  0  0  0
    8.8336    2.9981    0.0000 O   0  0  0  0  0  0  0  0  0  0  0  0
   13.8137   -4.7197    0.0000 O   0  0  0  0  0  0  0  0  0  0  0  0
    9.8492    5.4411    0.0000 O   0  0  0  0  0  0  0  0  0  0  0  0
   12.0816   -5.7197    0.0000 O   0  0  0  0  0  0  0  0  0  0  0  0
   10.3496   -4.7197    0.0000 O   0  0  0  0  0  0  0  0  0  0  0  0
    7.8906    5.8460    0.0000 O   0  0  0  0  0  0  0  0  0  0  0  0
    6.5607    4.3523    0.0000 O   0  0  0  0  0  0  0  0  0  0  0  0
    9.4836   -3.2197    0.0000 O   0  0  0  0  0  0  0  0  0  0  0  0
    6.2100    2.6561    0.0000 O   0  0  0  0  0  0  0  0  0  0  0  0
    4.5658    2.1117    0.0000 O   0  0  0  0  0  0  0  0  0  0  0  0
    6.8387    0.7575    0.0000 O   0  0  0  0  0  0  0  0  0  0  0  0
    5.5087   -0.7363    0.0000 O   0  0  0  0  0  0  0  0  0  0  0  0
    3.5501   -0.3314    0.0000 O   0  0  0  0  0  0  0  0  0  0  0  0
    2.6072    2.5166    0.0000 O   0  0  0  0  0  0  0  0  0  0  0  0
   12.9257   -0.1539    0.0000 C   0  0  3  0  0  0  0  0  0  0  0  0
   12.0577    0.3428    0.0000 C   0  0  3  0  0  0  0  0  0  0  0  0
   13.7898    0.3495    0.0000 C   0  0  3  0  0  0  0  0  0  0  0  0
   14.7017   -0.1539    0.0000 C   0  0  3  0  0  0  0  0  0  0  0  0
   12.0539    1.3428    0.0000 C   0  0  3  0  0  0  0  0  0  0  0  0
   14.7138   -1.1954    0.0000 C   0  0  3  0  0  0  0  0  0  0  0  0
   12.9136   -1.1954    0.0000 C   0  0  0  0  0  0  0  0  0  0  0  0
   13.7859    1.3495    0.0000 C   0  0  0  0  0  0  0  0  0  0  0  0
   11.1065    1.6439    0.0000 C   0  0  3  0  0  0  0  0  0  0  0  0
   12.9180    1.8461    0.0000 C   0  0  3  0  0  0  0  0  0  0  0  0
   11.1127    0.0344    0.0000 C   0  0  0  0  0  0  0  0  0  0  0  0
   13.8137   -1.7197    0.0000 C   0  0  3  0  0  0  0  0  0  0  0  0
   15.6513   -1.7415    0.0000 C   0  0  0  0  0  0  0  0  0  0  0  0
   10.5260    0.8369    0.0000 C   0  0  0  0  0  0  0  0  0  0  0  0
   15.6264    0.4138    0.0000 C   0  0  0  0  0  0  0  0  0  0  0  0
   12.2858   -0.9224    0.0000 C   0  0  0  0  0  0  0  0  0  0  0  0
   11.7193   -0.5982    0.0000 C   0  0  0  0  0  0  0  0  0  0  0  0
   14.6901    0.8461    0.0000 C   0  0  0  0  0  0  0  0  0  0  0  0
   16.5888   -1.1954    0.0000 C   0  0  3  0  0  0  0  0  0  0  0  0
   10.7922    2.5932    0.0000 C   0  0  3  0  0  0  0  0  0  0  0  0
   16.5763   -0.1105    0.0000 C   0  0  0  0  0  0  0  0  0  0  0  0
   16.1513   -2.6076    0.0000 C   0  0  0  0  0  0  0  0  0  0  0  0
   15.1513   -2.6076    0.0000 C   0  0  0  0  0  0  0  0  0  0  0  0
    9.8428    2.2789    0.0000 C   0  0  0  0  0  0  0  0  0  0  0  0
   11.7415    2.9075    0.0000 C   0  0  0  0  0  0  0  0  0  0  0  0
   12.9477   -3.2197    0.0000 C   0  0  2  0  0  0  0  0  0  0  0  0
    9.6404    1.2996    0.0000 C   0  0  0  0  0  0  0  0  0  0  0  0
    9.4985    3.7450    0.0000 C   0  0  2  0  0  0  0  0  0  0  0  0
   12.9477   -4.2197    0.0000 C   0  0  1  0  0  0  0  0  0  0  0  0
    9.1842    4.6943    0.0000 C   0  0  1  0  0  0  0  0  0  0  0  0
   12.0816   -4.7197    0.0000 C   0  0  2  0  0  0  0  0  0  0  0  0
   11.2156   -3.2197    0.0000 C   0  0  1  0  0  0  0  0  0  0  0  0
    8.6911    0.9852    0.0000 C   0  0  0  0  0  0  0  0  0  0  0  0
   11.2156   -4.2197    0.0000 C   0  0  1  0  0  0  0  0  0  0  0  0
    8.2049    4.8967    0.0000 C   0  0  2  0  0  0  0  0  0  0  0  0
    7.8543    3.2005    0.0000 C   0  0  1  0  0  0  0  0  0  0  0  0
    7.5400    4.1498    0.0000 C   0  0  1  0  0  0  0  0  0  0  0  0
   10.3496   -2.7197    0.0000 C   0  0  0  0  0  0  0  0  0  0  0  0
    8.4886    0.0060    0.0000 C   0  0  0  0  0  0  0  0  0  0  0  0
    7.1893    2.4536    0.0000 C   0  0  0  0  0  0  0  0  0  0  0  0
    7.5393   -0.3084    0.0000 C   0  0  0  0  0  0  0  0  0  0  0  0
    9.2355   -0.6590    0.0000 C   0  0  0  0  0  0  0  0  0  0  0  0
    5.5450    1.9092    0.0000 C   0  0  1  0  0  0  0  0  0  0  0  0
    5.8594    0.9599    0.0000 C   0  0  1  0  0  0  0  0  0  0  0  0
    5.1944    0.2130    0.0000 C   0  0  2  0  0  0  0  0  0  0  0  0
    3.9008    1.3648    0.0000 C   0  0  1  0  0  0  0  0  0  0  0  0
    4.2151    0.4155    0.0000 C   0  0  1  0  0  0  0  0  0  0  0  0
    2.9215    1.5672    0.0000 C   0  0  0  0  0  0  0  0  0  0  0  0
   14.5209    0.7830    0.0000 H   0  0  0  0  0  0  0  0  0  0  0  0
   11.9607    2.1877    0.0000 H   0  0  0  0  0  0  0  0  0  0  0  0
   14.7138   -2.0454    0.0000 H   0  0  0  0  0  0  0  0  0  0  0  0
   12.3040   -1.0823    0.0000 H   0  0  0  0  0  0  0  0  0  0  0  0
   12.6978   -1.7767    0.0000 H   0  0  0  0  0  0  0  0  0  0  0  0
   14.3969    1.2442    0.0000 H   0  0  0  0  0  0  0  0  0  0  0  0
   13.9957    1.9329    0.0000 H   0  0  0  0  0  0  0  0  0  0  0  0
   10.2663    1.7725    0.0000 H   0  0  0  0  0  0  0  0  0  0  0  0
   13.6524    2.2740    0.0000 H   0  0  0  0  0  0  0  0  0  0  0  0
   10.5765   -0.2769    0.0000 H   0  0  0  0  0  0  0  0  0  0  0  0
   11.3659   -0.5315    0.0000 H   0  0  0  0  0  0  0  0  0  0  0  0
   14.5506   -2.1433    0.0000 H   0  0  0  0  0  0  0  0  0  0  0  0
   10.0635    1.2498    0.0000 H   0  0  0  0  0  0  0  0  0  0  0  0
   10.0667    0.4204    0.0000 H   0  0  0  0  0  0  0  0  0  0  0  0
   16.0144    0.8973    0.0000 H   0  0  0  0  0  0  0  0  0  0  0  0
   15.2164    0.8789    0.0000 H   0  0  0  0  0  0  0  0  0  0  0  0
   11.8093   -0.5256    0.0000 H   0  0  0  0  0  0  0  0  0  0  0  0
   11.8891   -1.3988    0.0000 H   0  0  0  0  0  0  0  0  0  0  0  0
   12.7623   -1.3191    0.0000 H   0  0  0  0  0  0  0  0  0  0  0  0
   11.1359   -0.3884    0.0000 H   0  0  0  0  0  0  0  0  0  0  0  0
   11.5095   -1.1816    0.0000 H   0  0  0  0  0  0  0  0  0  0  0  0
   12.3027   -0.8080    0.0000 H   0  0  0  0  0  0  0  0  0  0  0  0
   15.3101    0.8532    0.0000 H   0  0  0  0  0  0  0  0  0  0  0  0
   14.6830    1.4660    0.0000 H   0  0  0  0  0  0  0  0  0  0  0  0
   14.0702    0.8389    0.0000 H   0  0  0  0  0  0  0  0  0  0  0  0
   17.3208   -0.7633    0.0000 H   0  0  0  0  0  0  0  0  0  0  0  0
   17.1883   -0.2095    0.0000 H   0  0  0  0  0  0  0  0  0  0  0  0
   16.7786    0.4756    0.0000 H   0  0  0  0  0  0  0  0  0  0  0  0
   15.6144   -2.9176    0.0000 H   0  0  0  0  0  0  0  0  0  0  0  0
   16.4613   -3.1445    0.0000 H   0  0  0  0  0  0  0  0  0  0  0  0
   16.6882   -2.2976    0.0000 H   0  0  0  0  0  0  0  0  0  0  0  0
   14.6144   -2.2976    0.0000 H   0  0  0  0  0  0  0  0  0  0  0  0
   14.8413   -3.1445    0.0000 H   0  0  0  0  0  0  0  0  0  0  0  0
   15.6882   -2.9176    0.0000 H   0  0  0  0  0  0  0  0  0  0  0  0
   13.4498    3.1582    0.0000 H   0  0  0  0  0  0  0  0  0  0  0  0
    9.7531    2.8923    0.0000 H   0  0  0  0  0  0  0  0  0  0  0  0
    9.2231    2.2970    0.0000 H   0  0  0  0  0  0  0  0  0  0  0  0
   11.9364    2.3189    0.0000 H   0  0  0  0  0  0  0  0  0  0  0  0
   12.3300    3.1024    0.0000 H   0  0  0  0  0  0  0  0  0  0  0  0
   11.5466    3.4961    0.0000 H   0  0  0  0  0  0  0  0  0  0  0  0
   12.9477   -2.5997    0.0000 H   0  0  0  0  0  0  0  0  0  0  0  0
   17.9932   -1.3746    0.0000 H   0  0  0  0  0  0  0  0  0  0  0  0
    9.7301    0.6861    0.0000 H   0  0  0  0  0  0  0  0  0  0  0  0
   10.2601    1.2814    0.0000 H   0  0  0  0  0  0  0  0  0  0  0  0
    9.9108    4.2080    0.0000 H   0  0  0  0  0  0  0  0  0  0  0  0
   12.9477   -4.8397    0.0000 H   0  0  0  0  0  0  0  0  0  0  0  0
    8.9893    5.2828    0.0000 H   0  0  0  0  0  0  0  0  0  0  0  0
   11.5447   -5.0297    0.0000 H   0  0  0  0  0  0  0  0  0  0  0  0
   11.2156   -2.5997    0.0000 H   0  0  0  0  0  0  0  0  0  0  0  0
    8.2280    1.3975    0.0000 H   0  0  0  0  0  0  0  0  0  0  0  0
   10.6787   -3.9097    0.0000 H   0  0  0  0  0  0  0  0  0  0  0  0
    7.5978    5.0222    0.0000 H   0  0  0  0  0  0  0  0  0  0  0  0
    8.0492    2.6120    0.0000 H   0  0  0  0  0  0  0  0  0  0  0  0
   13.8137   -5.3397    0.0000 H   0  0  0  0  0  0  0  0  0  0  0  0
    7.1277    3.6868    0.0000 H   0  0  0  0  0  0  0  0  0  0  0  0
   10.7481   -2.2448    0.0000 H   0  0  0  0  0  0  0  0  0  0  0  0
    9.9511   -2.2448    0.0000 H   0  0  0  0  0  0  0  0  0  0  0  0
    9.6543    6.0297    0.0000 H   0  0  0  0  0  0  0  0  0  0  0  0
   11.5447   -6.0297    0.0000 H   0  0  0  0  0  0  0  0  0  0  0  0
   10.3496   -5.3397    0.0000 H   0  0  0  0  0  0  0  0  0  0  0  0
    6.9603    1.8775    0.0000 H   0  0  0  0  0  0  0  0  0  0  0  0
    7.7169    2.1280    0.0000 H   0  0  0  0  0  0  0  0  0  0  0  0
    7.2834    5.9715    0.0000 H   0  0  0  0  0  0  0  0  0  0  0  0
    8.8232   -1.1221    0.0000 H   0  0  0  0  0  0  0  0  0  0  0  0
    9.6986   -1.0713    0.0000 H   0  0  0  0  0  0  0  0  0  0  0  0
    7.3444    0.2802    0.0000 H   0  0  0  0  0  0  0  0  0  0  0  0
    6.9507   -0.5033    0.0000 H   0  0  0  0  0  0  0  0  0  0  0  0
    7.7342   -0.8969    0.0000 H   0  0  0  0  0  0  0  0  0  0  0  0
    9.6478   -0.1960    0.0000 H   0  0  0  0  0  0  0  0  0  0  0  0
    6.3658    4.9409    0.0000 H   0  0  0  0  0  0  0  0  0  0  0  0
    8.9466   -2.9097    0.0000 H   0  0  0  0  0  0  0  0  0  0  0  0
    5.3502    2.4978    0.0000 H   0  0  0  0  0  0  0  0  0  0  0  0
    6.0542    0.3713    0.0000 H   0  0  0  0  0  0  0  0  0  0  0  0
    4.7821   -0.2500    0.0000 H   0  0  0  0  0  0  0  0  0  0  0  0
    3.7059    1.9534    0.0000 H   0  0  0  0  0  0  0  0  0  0  0  0
    3.6079    0.5410    0.0000 H   0  0  0  0  0  0  0  0  0  0  0  0
    7.2509    1.2205    0.0000 H   0  0  0  0  0  0  0  0  0  0  0  0
    2.3080    1.4775    0.0000 H   0  0  0  0  0  0  0  0  0  0  0  0
    2.9033    0.9475    0.0000 H   0  0  0  0  0  0  0  0  0  0  0  0
    5.0964   -1.1993    0.0000 H   0  0  0  0  0  0  0  0  0  0  0  0
    2.9430   -0.2059    0.0000 H   0  0  0  0  0  0  0  0  0  0  0  0
    2.0000    2.6421    0.0000 H   0  0  0  0  0  0  0  0  0  0  0  0
  1 31  1  0  0  0  0
 45  1  1  1  0  0  0
  2 29  1  0  0  0  0
  2102  1  0  0  0  0
  3 39  1  0  0  0  0
 47  3  1  6  0  0  0
  4 38  1  0  0  0  0
  4109  1  0  0  0  0
  5 45  1  0  0  0  0
  5 51  1  0  0  0  0
  6 47  1  0  0  0  0
  6 55  1  0  0  0  0
 48  7  1  6  0  0  0
  7121  1  0  0  0  0
 49  8  1  1  0  0  0
  8125  1  0  0  0  0
 50  9  1  1  0  0  0
  9126  1  0  0  0  0
 53 10  1  6  0  0  0
 10127  1  0  0  0  0
 54 11  1  6  0  0  0
 11130  1  0  0  0  0
 56 12  1  1  0  0  0
 12137  1  0  0  0  0
 13 57  1  0  0  0  0
 13138  1  0  0  0  0
 14 59  1  0  0  0  0
 62 14  1  6  0  0  0
 15 62  1  0  0  0  0
 15 65  1  0  0  0  0
 63 16  1  6  0  0  0
 16144  1  0  0  0  0
 64 17  1  1  0  0  0
 17147  1  0  0  0  0
 66 18  1  6  0  0  0
 18148  1  0  0  0  0
 19 67  1  0  0  0  0
 19149  1  0  0  0  0
 20 21  1  0  0  0  0
 20 22  1  0  0  0  0
 20 26  1  0  0  0  0
 20 35  1  0  0  0  0
 21 24  1  0  0  0  0
 21 30  1  0  0  0  0
 21 36  1  0  0  0  0
 22 23  1  0  0  0  0
 22 27  1  0  0  0  0
 22 68  1  0  0  0  0
 23 25  1  0  0  0  0
 23 34  1  0  0  0  0
 23 37  1  0  0  0  0
 24 28  1  0  0  0  0
 24 29  1  0  0  0  0
 24 69  1  0  0  0  0
 25 31  1  0  0  0  0
 25 32  1  0  0  0  0
 25 70  1  0  0  0  0
 26 31  1  0  0  0  0
 26 71  1  0  0  0  0
 26 72  1  0  0  0  0
 27 29  1  0  0  0  0
 27 73  1  0  0  0  0
 27 74  1  0  0  0  0
 28 33  1  0  0  0  0
 28 39  1  0  0  0  0
 28 75  1  0  0  0  0
 29 76  1  0  0  0  0
 30 33  1  0  0  0  0
 30 77  1  0  0  0  0
 30 78  1  0  0  0  0
 31 79  1  0  0  0  0
 32 38  1  0  0  0  0
 32 41  1  0  0  0  0
 32 42  1  0  0  0  0
 33 80  1  0  0  0  0
 33 81  1  0  0  0  0
 34 40  1  0  0  0  0
 34 82  1  0  0  0  0
 34 83  1  0  0  0  0
 35 84  1  0  0  0  0
 35 85  1  0  0  0  0
 35 86  1  0  0  0  0
 36 87  1  0  0  0  0
 36 88  1  0  0  0  0
 36 89  1  0  0  0  0
 37 90  1  0  0  0  0
 37 91  1  0  0  0  0
 37 92  1  0  0  0  0
 38 40  1  0  0  0  0
 38 93  1  0  0  0  0
 39 43  1  0  0  0  0
 39 44  1  0  0  0  0
 40 94  1  0  0  0  0
 40 95  1  0  0  0  0
 41 96  1  0  0  0  0
 41 97  1  0  0  0  0
 41 98  1  0  0  0  0
 42 99  1  0  0  0  0
 42100  1  0  0  0  0
 42101  1  0  0  0  0
 43 46  1  0  0  0  0
 43103  1  0  0  0  0
 43104  1  0  0  0  0
 44105  1  0  0  0  0
 44106  1  0  0  0  0
 44107  1  0  0  0  0
 45 48  1  0  0  0  0
 45108  1  0  0  0  0
 46 52  1  0  0  0  0
 46110  1  0  0  0  0
 46111  1  0  0  0  0
 47 49  1  0  0  0  0
 47112  1  0  0  0  0
 48 50  1  0  0  0  0
 48113  1  0  0  0  0
 49 54  1  0  0  0  0
 49114  1  0  0  0  0
 50 53  1  0  0  0  0
 50115  1  0  0  0  0
 51 53  1  0  0  0  0
 51 57  1  1  0  0  0
 51116  1  0  0  0  0
 52 58  2  0  0  0  0
 52117  1  0  0  0  0
 53118  1  0  0  0  0
 54 56  1  0  0  0  0
 54119  1  0  0  0  0
 55 56  1  0  0  0  0
 55 59  1  6  0  0  0
 55120  1  0  0  0  0
 56122  1  0  0  0  0
 57123  1  0  0  0  0
 57124  1  0  0  0  0
 58 60  1  0  0  0  0
 58 61  1  0  0  0  0
 59128  1  0  0  0  0
 59129  1  0  0  0  0
 60133  1  0  0  0  0
 60134  1  0  0  0  0
 60135  1  0  0  0  0
 61131  1  0  0  0  0
 61132  1  0  0  0  0
 61136  1  0  0  0  0
 62 63  1  0  0  0  0
 62139  1  0  0  0  0
 63 64  1  0  0  0  0
 63140  1  0  0  0  0
 64 66  1  0  0  0  0
 64141  1  0  0  0  0
 65 66  1  0  0  0  0
 65 67  1  1  0  0  0
 65142  1  0  0  0  0
 66143  1  0  0  0  0
 67145  1  0  0  0  0
 67146  1  0  0  0  0
M  END
> <PUBCHEM_COMPOUND_CID>
11968802

> <PUBCHEM_COMPOUND_CANONICALIZED>
1

> <PUBCHEM_CACTVS_COMPLEXITY>
1720

> <PUBCHEM_CACTVS_HBOND_ACCEPTOR>
19

> <PUBCHEM_CACTVS_HBOND_DONOR>
13

> <PUBCHEM_CACTVS_ROTATABLE_BOND>
13

> <PUBCHEM_CACTVS_SUBSKEYS>
AAADcfB8PgAAAAAAAAAAAAAAAAAAAYAAAAA0aNECAAAAAGDAAAAAGgAACAAAD1SwgAMCCAAABgCAAiBCAAAAAAAgAAAACAAAAAgREAIAAQAiQAAFgAAPAAPA4PwPgAAAAAAAAADAAAYAADAAAQAACAAAAA==

> <PUBCHEM_IUPAC_OPENEYE_NAME>
(2S,3R,4S,5S,6R)-2-[[(2R,3S,4S,5R,6S)-6-[1-[3,12-dihydroxy-4,4,8,10,14-pentamethyl-6-[(2R,3R,4S,5S,6R)-3,4,5-trihydroxy-6-(hydroxymethyl)tetrahydropyran-2-yl]oxy-2,3,5,6,7,9,11,12,13,15,16,17-dodecahydro-1H-cyclopenta[a]phenanthren-17-yl]-1,5-dimethyl-hex-4-enoxy]-3,4,5-trihydroxy-tetrahydropyran-2-yl]methoxy]-6-(hydroxymethyl)tetrahydropyran-3,4,5-triol

> <PUBCHEM_IUPAC_CAS_NAME>
(2S,3R,4S,5S,6R)-2-[[(2R,3S,4S,5R,6S)-6-[2-[3,12-dihydroxy-4,4,8,10,14-pentamethyl-6-[[(2R,3R,4S,5S,6R)-3,4,5-trihydroxy-6-(hydroxymethyl)-2-oxanyl]oxy]-2,3,5,6,7,9,11,12,13,15,16,17-dodecahydro-1H-cyclopenta[a]phenanthren-17-yl]-6-methylhept-5-en-2-yl]oxy-3,4,5-trihydroxy-2-oxanyl]methoxy]-6-(hydroxymethyl)oxane-3,4,5-triol

> <PUBCHEM_IUPAC_NAME>
(2S,3R,4S,5S,6R)-2-[[(2R,3S,4S,5R,6S)-6-[2-[3,12-dihydroxy-4,4,8,10,14-pentamethyl-6-[(2R,3R,4S,5S,6R)-3,4,5-trihydroxy-6-(hydroxymethyl)oxan-2-yl]oxy-2,3,5,6,7,9,11,12,13,15,16,17-dodecahydro-1H-cyclopenta[a]phenanthren-17-yl]-6-methylhept-5-en-2-yl]oxy-3,4,5-trihydroxyoxan-2-yl]methoxy]-6-(hydroxymethyl)oxane-3,4,5-triol

> <PUBCHEM_IUPAC_SYSTEMATIC_NAME>
(2R,3S,4S,5R,6S)-2-(hydroxymethyl)-6-[[(2R,3S,4S,5R,6S)-6-[2-[6-[(2R,3R,4S,5S,6R)-6-(hydroxymethyl)-3,4,5-tris(oxidanyl)oxan-2-yl]oxy-4,4,8,10,14-pentamethyl-3,12-bis(oxidanyl)-2,3,5,6,7,9,11,12,13,15,16,17-dodecahydro-1H-cyclopenta[a]phenanthren-17-yl]-6-methyl-hept-5-en-2-yl]oxy-3,4,5-tris(oxidanyl)oxan-2-yl]methoxy]oxane-3,4,5-triol

> <PUBCHEM_IUPAC_TRADITIONAL_NAME>
(2S,3R,4S,5S,6R)-2-[[(2R,3S,4S,5R,6S)-6-[1-[3,12-dihydroxy-4,4,8,10,14-pentamethyl-6-[(2R,3R,4S,5S,6R)-3,4,5-trihydroxy-6-methylol-tetrahydropyran-2-yl]oxy-2,3,5,6,7,9,11,12,13,15,16,17-dodecahydro-1H-cyclopenta[a]phenanthren-17-yl]-1,5-dimethyl-hex-4-enoxy]-3,4,5-trihydroxy-tetrahydropyran-2-yl]methoxy]-6-methylol-tetrahydropyran-3,4,5-triol

> <PUBCHEM_IUPAC_INCHI>
InChI=1S/C48H82O19/c1-21(2)10-9-13-48(8,67-43-39(61)36(58)33(55)27(66-43)20-62-41-37(59)34(56)31(53)25(18-49)64-41)22-11-15-46(6)30(22)23(51)16-28-45(5)14-12-29(52)44(3,4)40(45)24(17-47(28,46)7)63-42-38(60)35(57)32(54)26(19-50)65-42/h10,22-43,49-61H,9,11-20H2,1-8H3/t22?,23?,24?,25-,26-,27-,28?,29?,30?,31-,32-,33-,34+,35+,36+,37-,38-,39-,40?,41+,42-,43+,45?,46?,47?,48?/m1/s1

> <PUBCHEM_IUPAC_INCHIKEY>
YPUHYSBFIMWSEC-HSHDLZCWSA-N

> <PUBCHEM_XLOGP3_AA>
0.5

> <PUBCHEM_EXACT_MASS>
962.545

> <PUBCHEM_MOLECULAR_FORMULA>
C48H82O19

> <PUBCHEM_MOLECULAR_WEIGHT>
963.165

> <PUBCHEM_OPENEYE_CAN_SMILES>
CC(=CCCC(C)(C1CCC2(C1C(CC3C2(CC(C4C3(CCC(C4(C)C)O)C)OC5C(C(C(C(O5)CO)O)O)O)C)O)C)OC6C(C(C(C(O6)COC7C(C(C(C(O7)CO)O)O)O)O)O)O)C

> <PUBCHEM_OPENEYE_ISO_SMILES>
CC(=CCCC(C)(C1CCC2(C1C(CC3C2(CC(C4C3(CCC(C4(C)C)O)C)O[C@H]5[C@@H]([C@H]([C@@H]([C@H](O5)CO)O)O)O)C)O)C)O[C@H]6[C@@H]([C@H]([C@@H]([C@H](O6)CO[C@@H]7[C@@H]([C@H]([C@@H]([C@H](O7)CO)O)O)O)O)O)O)C

> <PUBCHEM_CACTVS_TPSA>
318

> <PUBCHEM_MONOISOTOPIC_WEIGHT>
962.545

> <PUBCHEM_TOTAL_CHARGE>
0

> <PUBCHEM_HEAVY_ATOM_COUNT>
67

> <PUBCHEM_ATOM_DEF_STEREO_COUNT>
15

> <PUBCHEM_ATOM_UDEF_STEREO_COUNT>
11

> <PUBCHEM_BOND_DEF_STEREO_COUNT>
0

> <PUBCHEM_BOND_UDEF_STEREO_COUNT>
0

> <PUBCHEM_ISOTOPIC_ATOM_COUNT>
0

> <PUBCHEM_COMPONENT_COUNT>
1

> <PUBCHEM_CACTVS_TAUTO_COUNT>
1

> <PUBCHEM_COORDINATE_TYPE>
1
5
255

> <PUBCHEM_BONDANNOTATIONS>
45  1  5
53  10  6
54  11  6
56  12  5
62  14  6
63  16  6
64  17  5
66  18  6
20  35  3
21  36  3
22  68  3
23  37  3
24  69  3
25  70  3
28  75  3
29  76  3
47  3  6
31  79  3
38  93  3
39  43  3
51  57  5
55  59  6
65  67  5
48  7  6
49  8  5
50  9  5

$$$$
