5316024
  -OEChem-12071809192D

 55 56  0     1  0  0  0  0  0999 V2000
    2.5000    3.0272    0.0000 O   0  0  0  0  0  0  0  0  0  0  0  0
    4.0000    3.8932    0.0000 O   0  0  0  0  0  0  0  0  0  0  0  0
    4.8660    0.6612    0.0000 C   0  0  1  0  0  0  0  0  0  0  0  0
    4.8660    1.6612    0.0000 C   0  0  2  0  0  0  0  0  0  0  0  0
    4.0000    2.1612    0.0000 C   0  0  1  0  0  0  0  0  0  0  0  0
    5.7600    0.1265    0.0000 C   0  0  1  0  0  0  0  0  0  0  0  0
    4.0000    0.1612    0.0000 C   0  0  0  0  0  0  0  0  0  0  0  0
    5.7600    2.1958    0.0000 C   0  0  0  0  0  0  0  0  0  0  0  0
    3.1340    1.6612    0.0000 C   0  0  0  0  0  0  0  0  0  0  0  0
    3.1340    0.6612    0.0000 C   0  0  0  0  0  0  0  0  0  0  0  0
    4.8660   -0.3388    0.0000 C   0  0  0  0  0  0  0  0  0  0  0  0
    6.6660    1.6820    0.0000 C   0  0  0  0  0  0  0  0  0  0  0  0
    6.6660    0.6404    0.0000 C   0  0  0  0  0  0  0  0  0  0  0  0
    4.5000    3.0272    0.0000 C   0  0  0  0  0  0  0  0  0  0  0  0
    5.7484   -0.8734    0.0000 C   0  0  0  0  0  0  0  0  0  0  0  0
    3.5000    3.0272    0.0000 C   0  0  0  0  0  0  0  0  0  0  0  0
    7.5301    0.1370    0.0000 C   0  0  0  0  0  0  0  0  0  0  0  0
    6.6086   -1.3834    0.0000 C   0  0  0  0  0  0  0  0  0  0  0  0
    6.5970   -2.3833    0.0000 C   0  0  0  0  0  0  0  0  0  0  0  0
    2.0000    3.8932    0.0000 C   0  0  0  0  0  0  0  0  0  0  0  0
    5.7253   -2.8733    0.0000 C   0  0  0  0  0  0  0  0  0  0  0  0
    7.4572   -2.8933    0.0000 C   0  0  0  0  0  0  0  0  0  0  0  0
    7.4456   -3.8932    0.0000 C   0  0  0  0  0  0  0  0  0  0  0  0
    4.8595    2.5112    0.0000 H   0  0  0  0  0  0  0  0  0  0  0  0
    6.2939   -0.1886    0.0000 H   0  0  0  0  0  0  0  0  0  0  0  0
    3.6015   -0.3138    0.0000 H   0  0  0  0  0  0  0  0  0  0  0  0
    4.3985   -0.3138    0.0000 H   0  0  0  0  0  0  0  0  0  0  0  0
    6.1536    2.6749    0.0000 H   0  0  0  0  0  0  0  0  0  0  0  0
    5.3554    2.6656    0.0000 H   0  0  0  0  0  0  0  0  0  0  0  0
    2.9219    2.2438    0.0000 H   0  0  0  0  0  0  0  0  0  0  0  0
    2.5234    1.5535    0.0000 H   0  0  0  0  0  0  0  0  0  0  0  0
    2.5234    0.7688    0.0000 H   0  0  0  0  0  0  0  0  0  0  0  0
    2.9219    0.0786    0.0000 H   0  0  0  0  0  0  0  0  0  0  0  0
    4.2460   -0.3388    0.0000 H   0  0  0  0  0  0  0  0  0  0  0  0
    4.8660   -0.9588    0.0000 H   0  0  0  0  0  0  0  0  0  0  0  0
    5.4860   -0.3388    0.0000 H   0  0  0  0  0  0  0  0  0  0  0  0
    7.2769    1.5759    0.0000 H   0  0  0  0  0  0  0  0  0  0  0  0
    6.8751    2.2657    0.0000 H   0  0  0  0  0  0  0  0  0  0  0  0
    5.0369    2.7172    0.0000 H   0  0  0  0  0  0  0  0  0  0  0  0
    4.8100    3.5642    0.0000 H   0  0  0  0  0  0  0  0  0  0  0  0
    3.9631    3.3372    0.0000 H   0  0  0  0  0  0  0  0  0  0  0  0
    5.1391   -0.7587    0.0000 H   0  0  0  0  0  0  0  0  0  0  0  0
    5.5296   -1.4535    0.0000 H   0  0  0  0  0  0  0  0  0  0  0  0
    7.5277   -0.4830    0.0000 H   0  0  0  0  0  0  0  0  0  0  0  0
    8.0683    0.4450    0.0000 H   0  0  0  0  0  0  0  0  0  0  0  0
    7.1491   -1.0796    0.0000 H   0  0  0  0  0  0  0  0  0  0  0  0
    2.5369    4.2032    0.0000 H   0  0  0  0  0  0  0  0  0  0  0  0
    1.6900    4.4302    0.0000 H   0  0  0  0  0  0  0  0  0  0  0  0
    1.4631    3.5832    0.0000 H   0  0  0  0  0  0  0  0  0  0  0  0
    5.4215   -2.3328    0.0000 H   0  0  0  0  0  0  0  0  0  0  0  0
    5.1848   -3.1770    0.0000 H   0  0  0  0  0  0  0  0  0  0  0  0
    6.0290   -3.4138    0.0000 H   0  0  0  0  0  0  0  0  0  0  0  0
    7.9977   -2.5895    0.0000 H   0  0  0  0  0  0  0  0  0  0  0  0
    6.9052   -4.1970    0.0000 H   0  0  0  0  0  0  0  0  0  0  0  0
    7.9790   -4.2094    0.0000 H   0  0  0  0  0  0  0  0  0  0  0  0
  1 16  1  0  0  0  0
  1 20  1  0  0  0  0
  2 16  2  0  0  0  0
  3  4  1  0  0  0  0
  3  6  1  0  0  0  0
  3  7  1  0  0  0  0
  3 11  1  6  0  0  0
  4  5  1  0  0  0  0
  4  8  1  0  0  0  0
  4 24  1  1  0  0  0
  5  9  1  0  0  0  0
  5 14  1  1  0  0  0
  5 16  1  0  0  0  0
  6 13  1  0  0  0  0
  6 15  1  1  0  0  0
  6 25  1  0  0  0  0
  7 10  1  0  0  0  0
  7 26  1  0  0  0  0
  7 27  1  0  0  0  0
  8 12  1  0  0  0  0
  8 28  1  0  0  0  0
  8 29  1  0  0  0  0
  9 10  1  0  0  0  0
  9 30  1  0  0  0  0
  9 31  1  0  0  0  0
 10 32  1  0  0  0  0
 10 33  1  0  0  0  0
 11 34  1  0  0  0  0
 11 35  1  0  0  0  0
 11 36  1  0  0  0  0
 12 13  1  0  0  0  0
 12 37  1  0  0  0  0
 12 38  1  0  0  0  0
 13 17  2  0  0  0  0
 14 39  1  0  0  0  0
 14 40  1  0  0  0  0
 14 41  1  0  0  0  0
 15 18  1  0  0  0  0
 15 42  1  0  0  0  0
 15 43  1  0  0  0  0
 17 44  1  0  0  0  0
 17 45  1  0  0  0  0
 18 19  2  0  0  0  0
 18 46  1  0  0  0  0
 19 21  1  0  0  0  0
 19 22  1  0  0  0  0
 20 47  1  0  0  0  0
 20 48  1  0  0  0  0
 20 49  1  0  0  0  0
 21 50  1  0  0  0  0
 21 51  1  0  0  0  0
 21 52  1  0  0  0  0
 22 23  2  0  0  0  0
 22 53  1  0  0  0  0
 23 54  1  0  0  0  0
 23 55  1  0  0  0  0
M  END
> <PUBCHEM_COMPOUND_CID>
5316024

> <PUBCHEM_COMPOUND_CANONICALIZED>
1

> <PUBCHEM_CACTVS_COMPLEXITY>
530

> <PUBCHEM_CACTVS_HBOND_ACCEPTOR>
2

> <PUBCHEM_CACTVS_HBOND_DONOR>
0

> <PUBCHEM_CACTVS_ROTATABLE_BOND>
5

> <PUBCHEM_CACTVS_SUBSKEYS>
AAADcfB4MAAAAAAAAAAAAAAAAAAAAAAAAAAwYAAAAAAAAADAAAAAGgAAAAAADwCAgAICCAAABACIAiDSCAAAAAAgAAAICAEAAAgIABIAAQAAAAAEgAAIgAOIyPCPgAAAAAAAAAAAAAQAACAAAAAAAAAAAA==

> <PUBCHEM_IUPAC_OPENEYE_NAME>
methyl (1S,4aR,5R,8aR)-1,4a-dimethyl-6-methylene-5-[(2E)-3-methylpenta-2,4-dienyl]decalin-1-carboxylate

> <PUBCHEM_IUPAC_CAS_NAME>
(1S,4aR,5R,8aR)-1,4a-dimethyl-6-methylene-5-[(2E)-3-methylpenta-2,4-dienyl]-3,4,5,7,8,8a-hexahydro-2H-naphthalene-1-carboxylic acid methyl ester

> <PUBCHEM_IUPAC_NAME>
methyl (1S,4aR,5R,8aR)-1,4a-dimethyl-6-methylidene-5-[(2E)-3-methylpenta-2,4-dienyl]-3,4,5,7,8,8a-hexahydro-2H-naphthalene-1-carboxylate

> <PUBCHEM_IUPAC_SYSTEMATIC_NAME>
methyl (1S,4aR,5R,8aR)-1,4a-dimethyl-6-methylidene-5-[(2E)-3-methylpenta-2,4-dienyl]-3,4,5,7,8,8a-hexahydro-2H-naphthalene-1-carboxylate

> <PUBCHEM_IUPAC_TRADITIONAL_NAME>
(1S,4aR,5R,8aR)-1,4a-dimethyl-6-methylene-5-[(2E)-3-methylpenta-2,4-dienyl]decalin-1-carboxylic acid methyl ester

> <PUBCHEM_IUPAC_INCHI>
InChI=1S/C21H32O2/c1-7-15(2)9-11-17-16(3)10-12-18-20(17,4)13-8-14-21(18,5)19(22)23-6/h7,9,17-18H,1,3,8,10-14H2,2,4-6H3/b15-9+/t17-,18-,20-,21+/m1/s1

> <PUBCHEM_IUPAC_INCHIKEY>
WYJKGKPQXWDIQP-XFPKCUBTSA-N

> <PUBCHEM_XLOGP3_AA>
6

> <PUBCHEM_EXACT_MASS>
316.24

> <PUBCHEM_MOLECULAR_FORMULA>
C21H32O2

> <PUBCHEM_MOLECULAR_WEIGHT>
316.485

> <PUBCHEM_OPENEYE_CAN_SMILES>
CC(=CCC1C(=C)CCC2C1(CCCC2(C)C(=O)OC)C)C=C

> <PUBCHEM_OPENEYE_ISO_SMILES>
C/C(=C\C[C@@H]1C(=C)CC[C@@H]2[C@@]1(CCC[C@]2(C)C(=O)OC)C)/C=C

> <PUBCHEM_CACTVS_TPSA>
26.3

> <PUBCHEM_MONOISOTOPIC_WEIGHT>
316.24

> <PUBCHEM_TOTAL_CHARGE>
0

> <PUBCHEM_HEAVY_ATOM_COUNT>
23

> <PUBCHEM_ATOM_DEF_STEREO_COUNT>
4

> <PUBCHEM_ATOM_UDEF_STEREO_COUNT>
0

> <PUBCHEM_BOND_DEF_STEREO_COUNT>
1

> <PUBCHEM_BOND_UDEF_STEREO_COUNT>
0

> <PUBCHEM_ISOTOPIC_ATOM_COUNT>
0

> <PUBCHEM_COMPONENT_COUNT>
1

> <PUBCHEM_CACTVS_TAUTO_COUNT>
1

> <PUBCHEM_COORDINATE_TYPE>
1
5
255

> <PUBCHEM_BONDANNOTATIONS>
3  11  6
4  24  5
5  14  5
6  15  5

$$$$
