50930798
  -OEChem-12071809302D

 80 83  0     1  0  0  0  0  0999 V2000
    7.3931   -0.6074    0.0000 C   0  0  1  0  0  0  0  0  0  0  0  0
    7.3931   -1.6074    0.0000 C   0  0  1  0  0  0  0  0  0  0  0  0
    6.5271   -2.1074    0.0000 C   0  0  2  0  0  0  0  0  0  0  0  0
    5.6610   -1.6074    0.0000 C   0  0  2  0  0  0  0  0  0  0  0  0
    8.3393   -0.3027    0.0000 C   0  0  2  0  0  0  0  0  0  0  0  0
    4.7510   -2.1143    0.0000 C   0  0  1  0  0  0  0  0  0  0  0  0
    6.5271   -0.1074    0.0000 C   0  0  0  0  0  0  0  0  0  0  0  0
    8.3393   -1.9122    0.0000 C   0  0  0  0  0  0  0  0  0  0  0  0
    5.6610   -0.6074    0.0000 C   0  0  0  0  0  0  0  0  0  0  0  0
    8.9229   -1.1074    0.0000 C   0  0  0  0  0  0  0  0  0  0  0  0
    6.5431   -3.1489    0.0000 C   0  0  0  0  0  0  0  0  0  0  0  0
    7.3931    0.3926    0.0000 C   0  0  0  0  0  0  0  0  0  0  0  0
    4.7430   -3.1559    0.0000 C   0  0  0  0  0  0  0  0  0  0  0  0
    8.6500    0.6478    0.0000 C   0  0  2  0  0  0  0  0  0  0  0  0
    3.8242   -1.5502    0.0000 C   0  0  0  0  0  0  0  0  0  0  0  0
    5.6451   -3.6767    0.0000 C   0  0  0  0  0  0  0  0  0  0  0  0
    4.7587   -1.1143    0.0000 C   0  0  0  0  0  0  0  0  0  0  0  0
    3.8076   -3.7056    0.0000 C   0  0  0  0  0  0  0  0  0  0  0  0
    2.8763   -2.0781    0.0000 C   0  0  0  0  0  0  0  0  0  0  0  0
    2.8680   -3.1631    0.0000 C   0  0  1  0  0  0  0  0  0  0  0  0
    7.9821    1.3921    0.0000 C   0  0  0  0  0  0  0  0  0  0  0  0
    9.6285    0.8540    0.0000 C   0  0  0  0  0  0  0  0  0  0  0  0
    2.0000   -3.6598    0.0000 C   0  0  0  0  0  0  0  0  0  0  0  0
    9.9391    1.8046    0.0000 C   0  0  0  0  0  0  0  0  0  0  0  0
   10.9176    2.0108    0.0000 C   0  0  1  0  0  0  0  0  0  0  0  0
   11.2283    2.9613    0.0000 C   0  0  0  0  0  0  0  0  0  0  0  0
   11.5855    1.2665    0.0000 C   0  0  0  0  0  0  0  0  0  0  0  0
   12.2068    3.1675    0.0000 C   0  0  0  0  0  0  0  0  0  0  0  0
   10.5605    3.7056    0.0000 C   0  0  0  0  0  0  0  0  0  0  0  0
   12.5640    1.4727    0.0000 C   0  0  0  0  0  0  0  0  0  0  0  0
    7.4830   -2.4527    0.0000 H   0  0  0  0  0  0  0  0  0  0  0  0
    7.2664   -2.5267    0.0000 H   0  0  0  0  0  0  0  0  0  0  0  0
    6.3972   -1.1824    0.0000 H   0  0  0  0  0  0  0  0  0  0  0  0
    9.1790   -0.1708    0.0000 H   0  0  0  0  0  0  0  0  0  0  0  0
    6.9256    0.3675    0.0000 H   0  0  0  0  0  0  0  0  0  0  0  0
    6.1285    0.3675    0.0000 H   0  0  0  0  0  0  0  0  0  0  0  0
    8.0883   -2.4791    0.0000 H   0  0  0  0  0  0  0  0  0  0  0  0
    8.8767   -2.2214    0.0000 H   0  0  0  0  0  0  0  0  0  0  0  0
    5.4490   -0.0248    0.0000 H   0  0  0  0  0  0  0  0  0  0  0  0
    5.0504   -0.7151    0.0000 H   0  0  0  0  0  0  0  0  0  0  0  0
    9.3838   -1.5222    0.0000 H   0  0  0  0  0  0  0  0  0  0  0  0
    9.3838   -0.6927    0.0000 H   0  0  0  0  0  0  0  0  0  0  0  0
    6.7612   -3.7293    0.0000 H   0  0  0  0  0  0  0  0  0  0  0  0
    7.1523   -3.0334    0.0000 H   0  0  0  0  0  0  0  0  0  0  0  0
    8.0131    0.3926    0.0000 H   0  0  0  0  0  0  0  0  0  0  0  0
    7.3931    1.0126    0.0000 H   0  0  0  0  0  0  0  0  0  0  0  0
    6.7731    0.3926    0.0000 H   0  0  0  0  0  0  0  0  0  0  0  0
    8.0433    0.5200    0.0000 H   0  0  0  0  0  0  0  0  0  0  0  0
    4.2324   -1.0835    0.0000 H   0  0  0  0  0  0  0  0  0  0  0  0
    3.4343   -1.0682    0.0000 H   0  0  0  0  0  0  0  0  0  0  0  0
    5.6475   -4.2967    0.0000 H   0  0  0  0  0  0  0  0  0  0  0  0
    5.3787   -1.1191    0.0000 H   0  0  0  0  0  0  0  0  0  0  0  0
    4.7635   -0.4943    0.0000 H   0  0  0  0  0  0  0  0  0  0  0  0
    4.1388   -1.1095    0.0000 H   0  0  0  0  0  0  0  0  0  0  0  0
    3.4103   -4.1816    0.0000 H   0  0  0  0  0  0  0  0  0  0  0  0
    4.2085   -4.1785    0.0000 H   0  0  0  0  0  0  0  0  0  0  0  0
    2.6718   -1.4929    0.0000 H   0  0  0  0  0  0  0  0  0  0  0  0
    2.2647   -2.1795    0.0000 H   0  0  0  0  0  0  0  0  0  0  0  0
    2.8668   -3.7831    0.0000 H   0  0  0  0  0  0  0  0  0  0  0  0
    8.4436    1.8062    0.0000 H   0  0  0  0  0  0  0  0  0  0  0  0
    7.5681    1.8536    0.0000 H   0  0  0  0  0  0  0  0  0  0  0  0
    7.5207    0.9781    0.0000 H   0  0  0  0  0  0  0  0  0  0  0  0
   10.0425    0.3926    0.0000 H   0  0  0  0  0  0  0  0  0  0  0  0
    1.6921   -3.1216    0.0000 H   0  0  0  0  0  0  0  0  0  0  0  0
    1.4619   -3.9677    0.0000 H   0  0  0  0  0  0  0  0  0  0  0  0
    2.3079   -4.1979    0.0000 H   0  0  0  0  0  0  0  0  0  0  0  0
    9.5251    2.2660    0.0000 H   0  0  0  0  0  0  0  0  0  0  0  0
   10.7250    1.4215    0.0000 H   0  0  0  0  0  0  0  0  0  0  0  0
   11.4209    3.5506    0.0000 H   0  0  0  0  0  0  0  0  0  0  0  0
   11.0591    0.9388    0.0000 H   0  0  0  0  0  0  0  0  0  0  0  0
   11.8167    0.6912    0.0000 H   0  0  0  0  0  0  0  0  0  0  0  0
   11.0219    4.1197    0.0000 H   0  0  0  0  0  0  0  0  0  0  0  0
   10.1464    4.1671    0.0000 H   0  0  0  0  0  0  0  0  0  0  0  0
   10.0990    3.2915    0.0000 H   0  0  0  0  0  0  0  0  0  0  0  0
   12.3347    2.5608    0.0000 H   0  0  0  0  0  0  0  0  0  0  0  0
   12.8135    3.2954    0.0000 H   0  0  0  0  0  0  0  0  0  0  0  0
   12.0790    3.7742    0.0000 H   0  0  0  0  0  0  0  0  0  0  0  0
   12.6918    0.8660    0.0000 H   0  0  0  0  0  0  0  0  0  0  0  0
   13.1707    1.6006    0.0000 H   0  0  0  0  0  0  0  0  0  0  0  0
   12.4361    2.0794    0.0000 H   0  0  0  0  0  0  0  0  0  0  0  0
  1  2  1  0  0  0  0
  1  5  1  0  0  0  0
  1  7  1  0  0  0  0
  1 12  1  1  0  0  0
  2  3  1  0  0  0  0
  2  8  1  0  0  0  0
  2 31  1  1  0  0  0
  3  4  1  0  0  0  0
  3 11  1  0  0  0  0
  3 32  1  6  0  0  0
  4  6  1  0  0  0  0
  4  9  1  0  0  0  0
  4 33  1  1  0  0  0
  5 10  1  0  0  0  0
  5 14  1  0  0  0  0
  5 34  1  6  0  0  0
  6 13  1  0  0  0  0
  6 15  1  0  0  0  0
  6 17  1  6  0  0  0
  7  9  1  0  0  0  0
  7 35  1  0  0  0  0
  7 36  1  0  0  0  0
  8 10  1  0  0  0  0
  8 37  1  0  0  0  0
  8 38  1  0  0  0  0
  9 39  1  0  0  0  0
  9 40  1  0  0  0  0
 10 41  1  0  0  0  0
 10 42  1  0  0  0  0
 11 16  1  0  0  0  0
 11 43  1  0  0  0  0
 11 44  1  0  0  0  0
 12 45  1  0  0  0  0
 12 46  1  0  0  0  0
 12 47  1  0  0  0  0
 13 16  2  0  0  0  0
 13 18  1  0  0  0  0
 14 21  1  6  0  0  0
 14 22  1  0  0  0  0
 14 48  1  0  0  0  0
 15 19  1  0  0  0  0
 15 49  1  0  0  0  0
 15 50  1  0  0  0  0
 16 51  1  0  0  0  0
 17 52  1  0  0  0  0
 17 53  1  0  0  0  0
 17 54  1  0  0  0  0
 18 20  1  0  0  0  0
 18 55  1  0  0  0  0
 18 56  1  0  0  0  0
 19 20  1  0  0  0  0
 19 57  1  0  0  0  0
 19 58  1  0  0  0  0
 20 23  1  6  0  0  0
 20 59  1  0  0  0  0
 21 60  1  0  0  0  0
 21 61  1  0  0  0  0
 21 62  1  0  0  0  0
 22 24  2  0  0  0  0
 22 63  1  0  0  0  0
 23 64  1  0  0  0  0
 23 65  1  0  0  0  0
 23 66  1  0  0  0  0
 25 24  1  1  0  0  0
 24 67  1  0  0  0  0
 25 26  1  0  0  0  0
 25 27  1  0  0  0  0
 25 68  1  0  0  0  0
 26 28  1  0  0  0  0
 26 29  1  0  0  0  0
 26 69  1  0  0  0  0
 27 30  1  0  0  0  0
 27 70  1  0  0  0  0
 27 71  1  0  0  0  0
 28 75  1  0  0  0  0
 28 76  1  0  0  0  0
 28 77  1  0  0  0  0
 29 72  1  0  0  0  0
 29 73  1  0  0  0  0
 29 74  1  0  0  0  0
 30 78  1  0  0  0  0
 30 79  1  0  0  0  0
 30 80  1  0  0  0  0
M  END
> <PUBCHEM_COMPOUND_CID>
50930798

> <PUBCHEM_COMPOUND_CANONICALIZED>
1

> <PUBCHEM_CACTVS_COMPLEXITY>
668

> <PUBCHEM_CACTVS_HBOND_ACCEPTOR>
0

> <PUBCHEM_CACTVS_HBOND_DONOR>
0

> <PUBCHEM_CACTVS_ROTATABLE_BOND>
5

> <PUBCHEM_CACTVS_SUBSKEYS>
AAADcfB4AAAAAAAAAAAAAAAAAAAAAYAAAAAwYIAAAAAAAGCAAAAAGAAAAAAADwCAAAACAAAAAACAAiBCAAAAAAAgAAAICAAAAAgAAAIAAQAAAAAAgAAIAAMAgMAPgAAAAAAAAACAAAQAACAAAQAACAAAAA==

> <PUBCHEM_IUPAC_OPENEYE_NAME>
(3R,8R,9R,10S,13R,14R,17R)-17-[(E,1R,4R)-4-ethyl-1,5-dimethyl-hex-2-enyl]-3,10,13-trimethyl-2,3,4,7,8,9,11,12,14,15,16,17-dodecahydro-1H-cyclopenta[a]phenanthrene

> <PUBCHEM_IUPAC_CAS_NAME>
(3R,8R,9R,10S,13R,14R,17R)-17-[(E,2R,5R)-5-ethyl-6-methylhept-3-en-2-yl]-3,10,13-trimethyl-2,3,4,7,8,9,11,12,14,15,16,17-dodecahydro-1H-cyclopenta[a]phenanthrene

> <PUBCHEM_IUPAC_NAME>
(3R,8R,9R,10S,13R,14R,17R)-17-[(E,2R,5R)-5-ethyl-6-methylhept-3-en-2-yl]-3,10,13-trimethyl-2,3,4,7,8,9,11,12,14,15,16,17-dodecahydro-1H-cyclopenta[a]phenanthrene

> <PUBCHEM_IUPAC_SYSTEMATIC_NAME>
(3R,8R,9R,10S,13R,14R,17R)-17-[(E,2R,5R)-5-ethyl-6-methyl-hept-3-en-2-yl]-3,10,13-trimethyl-2,3,4,7,8,9,11,12,14,15,16,17-dodecahydro-1H-cyclopenta[a]phenanthrene

> <PUBCHEM_IUPAC_TRADITIONAL_NAME>
(3R,8R,9R,10S,13R,14R,17R)-17-[(E,1R,4R)-4-ethyl-1,5-dimethyl-hex-2-enyl]-3,10,13-trimethyl-2,3,4,7,8,9,11,12,14,15,16,17-dodecahydro-1H-cyclopenta[a]phenanthrene

> <PUBCHEM_IUPAC_INCHI>
InChI=1S/C30H50/c1-8-23(20(2)3)10-9-22(5)26-13-14-27-25-12-11-24-19-21(4)15-17-29(24,6)28(25)16-18-30(26,27)7/h9-11,20-23,25-28H,8,12-19H2,1-7H3/b10-9+/t21-,22-,23+,25-,26-,27-,28-,29-,30-/m1/s1

> <PUBCHEM_IUPAC_INCHIKEY>
GYDIPQRLDOTECG-PYURGGGNSA-N

> <PUBCHEM_XLOGP3_AA>
10.3

> <PUBCHEM_EXACT_MASS>
410.391

> <PUBCHEM_MOLECULAR_FORMULA>
C30H50

> <PUBCHEM_MOLECULAR_WEIGHT>
410.73

> <PUBCHEM_OPENEYE_CAN_SMILES>
CCC(C=CC(C)C1CCC2C1(CCC3C2CC=C4C3(CCC(C4)C)C)C)C(C)C

> <PUBCHEM_OPENEYE_ISO_SMILES>
CC[C@@H](/C=C/[C@@H](C)[C@H]1CC[C@H]2[C@@]1(CC[C@@H]3[C@@H]2CC=C4[C@]3(CC[C@H](C4)C)C)C)C(C)C

> <PUBCHEM_CACTVS_TPSA>
0

> <PUBCHEM_MONOISOTOPIC_WEIGHT>
410.391

> <PUBCHEM_TOTAL_CHARGE>
0

> <PUBCHEM_HEAVY_ATOM_COUNT>
30

> <PUBCHEM_ATOM_DEF_STEREO_COUNT>
9

> <PUBCHEM_ATOM_UDEF_STEREO_COUNT>
0

> <PUBCHEM_BOND_DEF_STEREO_COUNT>
1

> <PUBCHEM_BOND_UDEF_STEREO_COUNT>
0

> <PUBCHEM_ISOTOPIC_ATOM_COUNT>
0

> <PUBCHEM_COMPONENT_COUNT>
1

> <PUBCHEM_CACTVS_TAUTO_COUNT>
1

> <PUBCHEM_COORDINATE_TYPE>
1
5
255

> <PUBCHEM_BONDANNOTATIONS>
1  12  5
14  21  6
2  31  5
20  23  6
25  24  5
3  32  6
4  33  5
5  34  6
6  17  6

$$$$
