101340557
  -OEChem-12071809342D

136144  0     1  0  0  0  0  0999 V2000
   10.8882    3.7325    0.0000 O   0  0  0  0  0  0  0  0  0  0  0  0
   11.2303    0.6920    0.0000 O   0  0  0  0  0  0  0  0  0  0  0  0
   10.7717    4.8946    0.0000 O   0  0  0  0  0  0  0  0  0  0  0  0
    9.4651   -4.5116    0.0000 O   0  0  0  0  0  0  0  0  0  0  0  0
   11.3761    7.2113    0.0000 O   0  0  0  0  0  0  0  0  0  0  0  0
    9.3400    7.2052    0.0000 O   0  0  0  0  0  0  0  0  0  0  0  0
    7.7331   -4.5116    0.0000 O   0  0  0  0  0  0  0  0  0  0  0  0
    9.4651   -6.5116    0.0000 O   0  0  0  0  0  0  0  0  0  0  0  0
    7.7331   -7.5116    0.0000 O   0  0  0  0  0  0  0  0  0  0  0  0
    6.0010   -6.5116    0.0000 O   0  0  0  0  0  0  0  0  0  0  0  0
   10.3312   -5.0116    0.0000 O   0  0  0  0  0  0  0  0  0  0  0  0
    6.0010   -3.5116    0.0000 O   0  0  0  0  0  0  0  0  0  0  0  0
    5.1350   -5.0116    0.0000 O   0  0  0  0  0  0  0  0  0  0  0  0
   11.1972   -7.5116    0.0000 O   0  0  0  0  0  0  0  0  0  0  0  0
   12.9292   -6.5116    0.0000 O   0  0  0  0  0  0  0  0  0  0  0  0
    4.2690   -7.5116    0.0000 O   0  0  0  0  0  0  0  0  0  0  0  0
   12.9292   -4.5116    0.0000 O   0  0  0  0  0  0  0  0  0  0  0  0
    2.5369   -6.5116    0.0000 O   0  0  0  0  0  0  0  0  0  0  0  0
    2.5369   -4.5116    0.0000 O   0  0  0  0  0  0  0  0  0  0  0  0
    9.4944    1.6853    0.0000 C   0  0  1  0  0  0  0  0  0  0  0  0
   10.3623    1.1886    0.0000 C   0  0  1  0  0  0  0  0  0  0  0  0
    9.6999    2.6579    0.0000 C   0  0  2  0  0  0  0  0  0  0  0  0
   10.3662    0.1886    0.0000 C   0  0  1  0  0  0  0  0  0  0  0  0
   10.6882    2.7648    0.0000 C   0  0  3  0  0  0  0  0  0  0  0  0
   11.0968    1.8586    0.0000 C   0  0  0  0  0  0  0  0  0  0  0  0
    9.5021   -0.3147    0.0000 C   0  0  2  0  0  0  0  0  0  0  0  0
    9.2976    3.5605    0.0000 C   0  0  1  0  0  0  0  0  0  0  0  0
    8.6303    1.1820    0.0000 C   0  0  0  0  0  0  0  0  0  0  0  0
    8.6342    0.1820    0.0000 C   0  0  0  0  0  0  0  0  0  0  0  0
   10.0305    4.2233    0.0000 C   0  0  1  0  0  0  0  0  0  0  0  0
    9.4901   -1.3563    0.0000 C   0  0  2  0  0  0  0  0  0  0  0  0
    8.6264    2.1820    0.0000 C   0  0  0  0  0  0  0  0  0  0  0  0
   11.2781   -0.3147    0.0000 C   0  0  0  0  0  0  0  0  0  0  0  0
   10.3901   -1.8806    0.0000 C   0  0  0  0  0  0  0  0  0  0  0  0
    9.1630    4.7207    0.0000 C   0  0  0  0  0  0  0  0  0  0  0  0
    8.5402   -1.8806    0.0000 C   0  0  0  0  0  0  0  0  0  0  0  0
    8.3192    3.7672    0.0000 C   0  0  0  0  0  0  0  0  0  0  0  0
   11.2902   -1.3563    0.0000 C   0  0  0  0  0  0  0  0  0  0  0  0
    8.6260   -0.8529    0.0000 C   0  0  0  0  0  0  0  0  0  0  0  0
   10.3622    5.8070    0.0000 C   0  0  0  0  0  0  0  0  0  0  0  0
    9.3680    5.6995    0.0000 C   0  0  0  0  0  0  0  0  0  0  0  0
   10.4027   -2.9655    0.0000 C   0  0  0  0  0  0  0  0  0  0  0  0
    8.5276   -2.9655    0.0000 C   0  0  0  0  0  0  0  0  0  0  0  0
    9.4651   -3.5116    0.0000 C   0  0  2  0  0  0  0  0  0  0  0  0
   10.2547    6.8012    0.0000 C   0  0  0  0  0  0  0  0  0  0  0  0
   11.2745    6.2164    0.0000 C   0  0  0  0  0  0  0  0  0  0  0  0
    8.5991   -5.0116    0.0000 C   0  0  2  0  0  0  0  0  0  0  0  0
    8.5991   -6.0116    0.0000 C   0  0  1  0  0  0  0  0  0  0  0  0
    7.7331   -6.5116    0.0000 C   0  0  2  0  0  0  0  0  0  0  0  0
    6.8671   -5.0116    0.0000 C   0  0  1  0  0  0  0  0  0  0  0  0
    6.8671   -6.0116    0.0000 C   0  0  1  0  0  0  0  0  0  0  0  0
    6.0010   -4.5116    0.0000 C   0  0  0  0  0  0  0  0  0  0  0  0
   10.3312   -6.0116    0.0000 C   0  0  2  0  0  0  0  0  0  0  0  0
   11.1972   -6.5116    0.0000 C   0  0  1  0  0  0  0  0  0  0  0  0
    5.1350   -6.0116    0.0000 C   0  0  2  0  0  0  0  0  0  0  0  0
   12.0632   -6.0116    0.0000 C   0  0  1  0  0  0  0  0  0  0  0  0
   11.1972   -4.5116    0.0000 C   0  0  2  0  0  0  0  0  0  0  0  0
    4.2690   -6.5116    0.0000 C   0  0  1  0  0  0  0  0  0  0  0  0
   12.0632   -5.0116    0.0000 C   0  0  2  0  0  0  0  0  0  0  0  0
    3.4030   -6.0116    0.0000 C   0  0  1  0  0  0  0  0  0  0  0  0
    4.2690   -4.5116    0.0000 C   0  0  2  0  0  0  0  0  0  0  0  0
    3.4030   -5.0116    0.0000 C   0  0  2  0  0  0  0  0  0  0  0  0
   11.1972   -3.5116    0.0000 C   0  0  0  0  0  0  0  0  0  0  0  0
    4.2690   -3.5116    0.0000 C   0  0  0  0  0  0  0  0  0  0  0  0
    8.8546    2.5684    0.0000 H   0  0  0  0  0  0  0  0  0  0  0  0
   11.0974    0.6221    0.0000 H   0  0  0  0  0  0  0  0  0  0  0  0
   11.3044    2.8328    0.0000 H   0  0  0  0  0  0  0  0  0  0  0  0
   11.4642    1.3591    0.0000 H   0  0  0  0  0  0  0  0  0  0  0  0
   11.6321    2.1714    0.0000 H   0  0  0  0  0  0  0  0  0  0  0  0
   10.2366   -0.7425    0.0000 H   0  0  0  0  0  0  0  0  0  0  0  0
    8.9078    3.0784    0.0000 H   0  0  0  0  0  0  0  0  0  0  0  0
    8.4160    1.7637    0.0000 H   0  0  0  0  0  0  0  0  0  0  0  0
    8.0201    1.0719    0.0000 H   0  0  0  0  0  0  0  0  0  0  0  0
    8.0232    0.2873    0.0000 H   0  0  0  0  0  0  0  0  0  0  0  0
    8.4244   -0.4015    0.0000 H   0  0  0  0  0  0  0  0  0  0  0  0
    8.9344    2.7201    0.0000 H   0  0  0  0  0  0  0  0  0  0  0  0
    8.0883    2.4899    0.0000 H   0  0  0  0  0  0  0  0  0  0  0  0
    8.3185    1.6438    0.0000 H   0  0  0  0  0  0  0  0  0  0  0  0
   11.8902   -0.4137    0.0000 H   0  0  0  0  0  0  0  0  0  0  0  0
   11.4804    0.2714    0.0000 H   0  0  0  0  0  0  0  0  0  0  0  0
    8.5728    4.9105    0.0000 H   0  0  0  0  0  0  0  0  0  0  0  0
    8.9125    4.1536    0.0000 H   0  0  0  0  0  0  0  0  0  0  0  0
   11.7660    1.0040    0.0000 H   0  0  0  0  0  0  0  0  0  0  0  0
    8.3379   -1.2945    0.0000 H   0  0  0  0  0  0  0  0  0  0  0  0
    7.9281   -1.9796    0.0000 H   0  0  0  0  0  0  0  0  0  0  0  0
    8.4473    4.3738    0.0000 H   0  0  0  0  0  0  0  0  0  0  0  0
    7.7125    3.8953    0.0000 H   0  0  0  0  0  0  0  0  0  0  0  0
    8.1910    3.1606    0.0000 H   0  0  0  0  0  0  0  0  0  0  0  0
   11.8295   -1.6621    0.0000 H   0  0  0  0  0  0  0  0  0  0  0  0
    8.9380   -0.3172    0.0000 H   0  0  0  0  0  0  0  0  0  0  0  0
    8.0902   -0.5409    0.0000 H   0  0  0  0  0  0  0  0  0  0  0  0
    8.3139   -1.3887    0.0000 H   0  0  0  0  0  0  0  0  0  0  0  0
    9.3662    6.3195    0.0000 H   0  0  0  0  0  0  0  0  0  0  0  0
    8.7512    5.7624    0.0000 H   0  0  0  0  0  0  0  0  0  0  0  0
   10.6185   -3.5467    0.0000 H   0  0  0  0  0  0  0  0  0  0  0  0
   11.0123   -2.8523    0.0000 H   0  0  0  0  0  0  0  0  0  0  0  0
    7.9180   -2.8523    0.0000 H   0  0  0  0  0  0  0  0  0  0  0  0
    8.3118   -3.5467    0.0000 H   0  0  0  0  0  0  0  0  0  0  0  0
   10.0027   -3.8206    0.0000 H   0  0  0  0  0  0  0  0  0  0  0  0
   10.8733    6.7598    0.0000 H   0  0  0  0  0  0  0  0  0  0  0  0
   10.4029    7.4032    0.0000 H   0  0  0  0  0  0  0  0  0  0  0  0
   11.4263    5.6153    0.0000 H   0  0  0  0  0  0  0  0  0  0  0  0
   11.8929    6.2615    0.0000 H   0  0  0  0  0  0  0  0  0  0  0  0
    8.5991   -4.3916    0.0000 H   0  0  0  0  0  0  0  0  0  0  0  0
   11.9417    7.4651    0.0000 H   0  0  0  0  0  0  0  0  0  0  0  0
    9.2733    7.8216    0.0000 H   0  0  0  0  0  0  0  0  0  0  0  0
    8.5991   -6.6316    0.0000 H   0  0  0  0  0  0  0  0  0  0  0  0
    7.1962   -6.8216    0.0000 H   0  0  0  0  0  0  0  0  0  0  0  0
    6.8671   -4.3916    0.0000 H   0  0  0  0  0  0  0  0  0  0  0  0
    6.3301   -5.7016    0.0000 H   0  0  0  0  0  0  0  0  0  0  0  0
    5.3905   -4.4039    0.0000 H   0  0  0  0  0  0  0  0  0  0  0  0
    5.7890   -5.0942    0.0000 H   0  0  0  0  0  0  0  0  0  0  0  0
    9.7942   -5.7016    0.0000 H   0  0  0  0  0  0  0  0  0  0  0  0
    7.1962   -7.8216    0.0000 H   0  0  0  0  0  0  0  0  0  0  0  0
   11.7341   -6.8216    0.0000 H   0  0  0  0  0  0  0  0  0  0  0  0
    5.1350   -6.6316    0.0000 H   0  0  0  0  0  0  0  0  0  0  0  0
    5.4641   -3.2016    0.0000 H   0  0  0  0  0  0  0  0  0  0  0  0
   12.6002   -5.7016    0.0000 H   0  0  0  0  0  0  0  0  0  0  0  0
   10.6603   -4.2016    0.0000 H   0  0  0  0  0  0  0  0  0  0  0  0
    3.7320   -6.8216    0.0000 H   0  0  0  0  0  0  0  0  0  0  0  0
   12.0632   -4.3916    0.0000 H   0  0  0  0  0  0  0  0  0  0  0  0
    2.8660   -5.7016    0.0000 H   0  0  0  0  0  0  0  0  0  0  0  0
   11.7341   -7.8216    0.0000 H   0  0  0  0  0  0  0  0  0  0  0  0
    4.8059   -4.2016    0.0000 H   0  0  0  0  0  0  0  0  0  0  0  0
    3.4030   -4.3916    0.0000 H   0  0  0  0  0  0  0  0  0  0  0  0
   11.8172   -3.5116    0.0000 H   0  0  0  0  0  0  0  0  0  0  0  0
   11.1972   -2.8916    0.0000 H   0  0  0  0  0  0  0  0  0  0  0  0
   10.5772   -3.5116    0.0000 H   0  0  0  0  0  0  0  0  0  0  0  0
   13.4662   -6.2016    0.0000 H   0  0  0  0  0  0  0  0  0  0  0  0
    3.7320   -7.8216    0.0000 H   0  0  0  0  0  0  0  0  0  0  0  0
   13.4662   -4.8216    0.0000 H   0  0  0  0  0  0  0  0  0  0  0  0
    4.8890   -3.5116    0.0000 H   0  0  0  0  0  0  0  0  0  0  0  0
    4.2690   -2.8916    0.0000 H   0  0  0  0  0  0  0  0  0  0  0  0
    3.6490   -3.5116    0.0000 H   0  0  0  0  0  0  0  0  0  0  0  0
    2.0000   -6.2016    0.0000 H   0  0  0  0  0  0  0  0  0  0  0  0
    2.5369   -3.8916    0.0000 H   0  0  0  0  0  0  0  0  0  0  0  0
  1 24  1  0  0  0  0
 30  1  1  1  0  0  0
 21  2  1  6  0  0  0
  2 83  1  0  0  0  0
  3 30  1  0  0  0  0
  3 40  1  0  0  0  0
 44  4  1  1  0  0  0
 47  4  1  1  0  0  0
  5 46  1  0  0  0  0
  5105  1  0  0  0  0
  6 45  1  0  0  0  0
  6106  1  0  0  0  0
  7 47  1  0  0  0  0
  7 50  1  0  0  0  0
 48  8  1  6  0  0  0
 53  8  1  6  0  0  0
 49  9  1  1  0  0  0
  9114  1  0  0  0  0
 51 10  1  6  0  0  0
 55 10  1  1  0  0  0
 11 53  1  0  0  0  0
 11 57  1  0  0  0  0
 12 52  1  0  0  0  0
 12117  1  0  0  0  0
 13 55  1  0  0  0  0
 13 61  1  0  0  0  0
 54 14  1  1  0  0  0
 14123  1  0  0  0  0
 56 15  1  1  0  0  0
 15129  1  0  0  0  0
 58 16  1  6  0  0  0
 16130  1  0  0  0  0
 59 17  1  6  0  0  0
 17131  1  0  0  0  0
 60 18  1  6  0  0  0
 18135  1  0  0  0  0
 62 19  1  1  0  0  0
 19136  1  0  0  0  0
 20 21  1  0  0  0  0
 20 22  1  0  0  0  0
 20 28  1  0  0  0  0
 20 32  1  1  0  0  0
 21 23  1  0  0  0  0
 21 25  1  0  0  0  0
 22 24  1  0  0  0  0
 22 27  1  0  0  0  0
 22 65  1  6  0  0  0
 23 26  1  0  0  0  0
 23 33  1  0  0  0  0
 23 66  1  1  0  0  0
 24 25  1  0  0  0  0
 24 67  1  0  0  0  0
 25 68  1  0  0  0  0
 25 69  1  0  0  0  0
 26 29  1  0  0  0  0
 26 31  1  0  0  0  0
 26 70  1  6  0  0  0
 27 30  1  0  0  0  0
 27 37  1  6  0  0  0
 27 71  1  0  0  0  0
 28 29  1  0  0  0  0
 28 72  1  0  0  0  0
 28 73  1  0  0  0  0
 29 74  1  0  0  0  0
 29 75  1  0  0  0  0
 30 35  1  0  0  0  0
 31 34  1  0  0  0  0
 31 36  1  0  0  0  0
 31 39  1  1  0  0  0
 32 76  1  0  0  0  0
 32 77  1  0  0  0  0
 32 78  1  0  0  0  0
 33 38  1  0  0  0  0
 33 79  1  0  0  0  0
 33 80  1  0  0  0  0
 34 38  2  0  0  0  0
 34 42  1  0  0  0  0
 35 41  1  0  0  0  0
 35 81  1  0  0  0  0
 35 82  1  0  0  0  0
 36 43  1  0  0  0  0
 36 84  1  0  0  0  0
 36 85  1  0  0  0  0
 37 86  1  0  0  0  0
 37 87  1  0  0  0  0
 37 88  1  0  0  0  0
 38 89  1  0  0  0  0
 39 90  1  0  0  0  0
 39 91  1  0  0  0  0
 39 92  1  0  0  0  0
 40 41  1  0  0  0  0
 40 45  1  0  0  0  0
 40 46  1  0  0  0  0
 41 93  1  0  0  0  0
 41 94  1  0  0  0  0
 42 44  1  0  0  0  0
 42 95  1  0  0  0  0
 42 96  1  0  0  0  0
 43 44  1  0  0  0  0
 43 97  1  0  0  0  0
 43 98  1  0  0  0  0
 44 99  1  0  0  0  0
 45100  1  0  0  0  0
 45101  1  0  0  0  0
 46102  1  0  0  0  0
 46103  1  0  0  0  0
 47 48  1  0  0  0  0
 47104  1  0  0  0  0
 48 49  1  0  0  0  0
 48107  1  0  0  0  0
 49 51  1  0  0  0  0
 49108  1  0  0  0  0
 50 51  1  0  0  0  0
 50 52  1  1  0  0  0
 50109  1  0  0  0  0
 51110  1  0  0  0  0
 52111  1  0  0  0  0
 52112  1  0  0  0  0
 53 54  1  0  0  0  0
 53113  1  0  0  0  0
 54 56  1  0  0  0  0
 54115  1  0  0  0  0
 55 58  1  0  0  0  0
 55116  1  0  0  0  0
 56 59  1  0  0  0  0
 56118  1  0  0  0  0
 57 59  1  0  0  0  0
 57 63  1  1  0  0  0
 57119  1  0  0  0  0
 58 60  1  0  0  0  0
 58120  1  0  0  0  0
 59121  1  0  0  0  0
 60 62  1  0  0  0  0
 60122  1  0  0  0  0
 61 62  1  0  0  0  0
 61 64  1  6  0  0  0
 61124  1  0  0  0  0
 62125  1  0  0  0  0
 63126  1  0  0  0  0
 63127  1  0  0  0  0
 63128  1  0  0  0  0
 64132  1  0  0  0  0
 64133  1  0  0  0  0
 64134  1  0  0  0  0
M  END
> <PUBCHEM_COMPOUND_CID>
101340557

> <PUBCHEM_COMPOUND_CANONICALIZED>
1

> <PUBCHEM_CACTVS_COMPLEXITY>
1720

> <PUBCHEM_CACTVS_HBOND_ACCEPTOR>
19

> <PUBCHEM_CACTVS_HBOND_DONOR>
11

> <PUBCHEM_CACTVS_ROTATABLE_BOND>
9

> <PUBCHEM_CACTVS_SUBSKEYS>
AAADcfB8PgAAAAAAAAAAAAAAAAAAAaJEAAA0aJECAAASAGCAAAAAGgAACAAAD1SwgAMCCAAABgCAAiBCAAAAAAAgAAAACAAAAAgREAIAAQAiQAAFwAAPAAPA4PwPgAAAAAAAAADAAAYAADAAAYQADAAAAA==

> <PUBCHEM_IUPAC_INCHI>
InChI=1S/C45H72O19/c1-19-28-26(63-45(19)13-12-43(17-47,18-48)64-45)15-44(56)25-7-6-22-14-23(8-10-41(22,4)24(25)9-11-42(28,44)5)59-40-37(62-39-34(54)32(52)30(50)21(3)58-39)35(55)36(27(16-46)60-40)61-38-33(53)31(51)29(49)20(2)57-38/h6,19-21,23-40,46-56H,7-18H2,1-5H3/t19-,20-,21-,23-,24-,25+,26?,27+,28-,29-,30-,31+,32+,33+,34+,35-,36+,37+,38-,39-,40+,41-,42+,44+,45-/m0/s1

> <PUBCHEM_IUPAC_INCHIKEY>
JCDXBNPDIZXBIS-UACYTEIQSA-N

> <PUBCHEM_XLOGP3_AA>
-2.2

> <PUBCHEM_EXACT_MASS>
916.467

> <PUBCHEM_MOLECULAR_FORMULA>
C45H72O19

> <PUBCHEM_MOLECULAR_WEIGHT>
917.052

> <PUBCHEM_OPENEYE_CAN_SMILES>
CC1C2C(CC3(C2(CCC4C3CC=C5C4(CCC(C5)OC6C(C(C(C(O6)CO)OC7C(C(C(C(O7)C)O)O)O)O)OC8C(C(C(C(O8)C)O)O)O)C)C)O)OC19CCC(O9)(CO)CO

> <PUBCHEM_OPENEYE_ISO_SMILES>
C[C@H]1[C@H]2C(C[C@@]3([C@@]2(CC[C@H]4[C@H]3CC=C5[C@@]4(CC[C@@H](C5)O[C@H]6[C@@H]([C@H]([C@@H]([C@H](O6)CO)O[C@H]7[C@@H]([C@@H]([C@H]([C@@H](O7)C)O)O)O)O)O[C@H]8[C@@H]([C@@H]([C@H]([C@@H](O8)C)O)O)O)C)C)O)O[C@]19CCC(O9)(CO)CO

> <PUBCHEM_CACTVS_TPSA>
296

> <PUBCHEM_MONOISOTOPIC_WEIGHT>
916.467

> <PUBCHEM_TOTAL_CHARGE>
0

> <PUBCHEM_HEAVY_ATOM_COUNT>
64

> <PUBCHEM_ATOM_DEF_STEREO_COUNT>
24

> <PUBCHEM_ATOM_UDEF_STEREO_COUNT>
1

> <PUBCHEM_BOND_DEF_STEREO_COUNT>
0

> <PUBCHEM_BOND_UDEF_STEREO_COUNT>
0

> <PUBCHEM_ISOTOPIC_ATOM_COUNT>
0

> <PUBCHEM_COMPONENT_COUNT>
1

> <PUBCHEM_CACTVS_TAUTO_COUNT>
1

> <PUBCHEM_COORDINATE_TYPE>
1
5
255

> <PUBCHEM_BONDANNOTATIONS>
30  1  5
51  10  6
55  10  5
54  14  5
56  15  5
58  16  6
59  17  6
60  18  6
62  19  5
21  2  6
20  32  5
22  65  6
23  66  5
24  25  3
26  70  6
27  37  6
31  39  5
44  4  5
47  4  5
50  52  5
57  63  5
61  64  6
48  8  6
53  8  6
49  9  5

$$$$
