44584103
  -OEChem-12071809252D

 54 57  0     1  0  0  0  0  0999 V2000
    6.0010   -1.2857    0.0000 O   0  0  0  0  0  0  0  0  0  0  0  0
    4.2690   -1.2857    0.0000 O   0  0  0  0  0  0  0  0  0  0  0  0
    6.8671    1.2143    0.0000 O   0  0  0  0  0  0  0  0  0  0  0  0
    6.0010   -3.2857    0.0000 O   0  0  0  0  0  0  0  0  0  0  0  0
    4.2690   -4.2857    0.0000 O   0  0  0  0  0  0  0  0  0  0  0  0
    2.5369   -3.2857    0.0000 O   0  0  0  0  0  0  0  0  0  0  0  0
    3.3648    1.2112    0.0000 O   0  0  0  0  0  0  0  0  0  0  0  0
    5.1229    4.2836    0.0000 O   0  0  0  0  0  0  0  0  0  0  0  0
   10.3312   -1.7857    0.0000 O   0  0  0  0  0  0  0  0  0  0  0  0
    5.1350   -2.7857    0.0000 C   0  0  1  0  0  0  0  0  0  0  0  0
    5.1350   -1.7857    0.0000 C   0  0  2  0  0  0  0  0  0  0  0  0
    4.2690   -3.2857    0.0000 C   0  0  1  0  0  0  0  0  0  0  0  0
    3.4030   -2.7857    0.0000 C   0  0  2  0  0  0  0  0  0  0  0  0
    6.0010   -0.2857    0.0000 C   0  0  1  0  0  0  0  0  0  0  0  0
    3.4030   -1.7857    0.0000 C   0  0  2  0  0  0  0  0  0  0  0  0
    6.8671    0.2143    0.0000 C   0  0  1  0  0  0  0  0  0  0  0  0
    5.1350    0.2143    0.0000 C   0  0  0  0  0  0  0  0  0  0  0  0
    5.1350    1.2143    0.0000 C   0  0  0  0  0  0  0  0  0  0  0  0
    2.5369   -1.2857    0.0000 C   0  0  0  0  0  0  0  0  0  0  0  0
    7.7331   -0.2857    0.0000 C   0  0  0  0  0  0  0  0  0  0  0  0
    6.0010    1.7143    0.0000 C   0  0  0  0  0  0  0  0  0  0  0  0
    4.2250    1.7212    0.0000 C   0  0  0  0  0  0  0  0  0  0  0  0
    6.0171    2.7558    0.0000 C   0  0  0  0  0  0  0  0  0  0  0  0
    7.7331   -1.2857    0.0000 C   0  0  0  0  0  0  0  0  0  0  0  0
    8.5991    0.2143    0.0000 C   0  0  0  0  0  0  0  0  0  0  0  0
    4.2170    2.7628    0.0000 C   0  0  0  0  0  0  0  0  0  0  0  0
    5.1191    3.2836    0.0000 C   0  0  0  0  0  0  0  0  0  0  0  0
    8.5991   -1.7857    0.0000 C   0  0  0  0  0  0  0  0  0  0  0  0
    9.4651   -0.2857    0.0000 C   0  0  0  0  0  0  0  0  0  0  0  0
    9.4651   -1.2857    0.0000 C   0  0  0  0  0  0  0  0  0  0  0  0
    5.1350   -3.4057    0.0000 H   0  0  0  0  0  0  0  0  0  0  0  0
    5.1350   -1.1657    0.0000 H   0  0  0  0  0  0  0  0  0  0  0  0
    3.7320   -3.5957    0.0000 H   0  0  0  0  0  0  0  0  0  0  0  0
    2.8660   -2.4757    0.0000 H   0  0  0  0  0  0  0  0  0  0  0  0
    6.5380   -0.5957    0.0000 H   0  0  0  0  0  0  0  0  0  0  0  0
    3.4030   -1.1657    0.0000 H   0  0  0  0  0  0  0  0  0  0  0  0
    7.4040    0.5243    0.0000 H   0  0  0  0  0  0  0  0  0  0  0  0
    4.5244    0.3220    0.0000 H   0  0  0  0  0  0  0  0  0  0  0  0
    4.9230   -0.3683    0.0000 H   0  0  0  0  0  0  0  0  0  0  0  0
    2.8469   -0.7487    0.0000 H   0  0  0  0  0  0  0  0  0  0  0  0
    2.0000   -0.9757    0.0000 H   0  0  0  0  0  0  0  0  0  0  0  0
    2.2269   -1.8226    0.0000 H   0  0  0  0  0  0  0  0  0  0  0  0
    6.0010   -3.9057    0.0000 H   0  0  0  0  0  0  0  0  0  0  0  0
    3.7320   -4.5957    0.0000 H   0  0  0  0  0  0  0  0  0  0  0  0
    2.0000   -2.9757    0.0000 H   0  0  0  0  0  0  0  0  0  0  0  0
    6.5576    3.0596    0.0000 H   0  0  0  0  0  0  0  0  0  0  0  0
    7.1962   -1.5957    0.0000 H   0  0  0  0  0  0  0  0  0  0  0  0
    8.5991    0.8343    0.0000 H   0  0  0  0  0  0  0  0  0  0  0  0
    3.6788    3.0707    0.0000 H   0  0  0  0  0  0  0  0  0  0  0  0
    8.5991   -2.4057    0.0000 H   0  0  0  0  0  0  0  0  0  0  0  0
   10.0021    0.0243    0.0000 H   0  0  0  0  0  0  0  0  0  0  0  0
    2.8243    1.5150    0.0000 H   0  0  0  0  0  0  0  0  0  0  0  0
    4.5872    4.5957    0.0000 H   0  0  0  0  0  0  0  0  0  0  0  0
   10.8681   -1.4757    0.0000 H   0  0  0  0  0  0  0  0  0  0  0  0
 11  1  1  1  0  0  0
 14  1  1  6  0  0  0
  2 11  1  0  0  0  0
  2 15  1  0  0  0  0
  3 16  1  0  0  0  0
  3 21  1  0  0  0  0
 10  4  1  6  0  0  0
  4 43  1  0  0  0  0
 12  5  1  6  0  0  0
  5 44  1  0  0  0  0
 13  6  1  1  0  0  0
  6 45  1  0  0  0  0
  7 22  1  0  0  0  0
  7 52  1  0  0  0  0
  8 27  1  0  0  0  0
  8 53  1  0  0  0  0
  9 30  1  0  0  0  0
  9 54  1  0  0  0  0
 10 11  1  0  0  0  0
 10 12  1  0  0  0  0
 10 31  1  0  0  0  0
 11 32  1  0  0  0  0
 12 13  1  0  0  0  0
 12 33  1  0  0  0  0
 13 15  1  0  0  0  0
 13 34  1  0  0  0  0
 14 16  1  0  0  0  0
 14 17  1  0  0  0  0
 14 35  1  0  0  0  0
 15 19  1  6  0  0  0
 15 36  1  0  0  0  0
 16 20  1  6  0  0  0
 16 37  1  0  0  0  0
 17 18  1  0  0  0  0
 17 38  1  0  0  0  0
 17 39  1  0  0  0  0
 18 21  1  0  0  0  0
 18 22  2  0  0  0  0
 19 40  1  0  0  0  0
 19 41  1  0  0  0  0
 19 42  1  0  0  0  0
 20 24  2  0  0  0  0
 20 25  1  0  0  0  0
 21 23  2  0  0  0  0
 22 26  1  0  0  0  0
 23 27  1  0  0  0  0
 23 46  1  0  0  0  0
 24 28  1  0  0  0  0
 24 47  1  0  0  0  0
 25 29  2  0  0  0  0
 25 48  1  0  0  0  0
 26 27  2  0  0  0  0
 26 49  1  0  0  0  0
 28 30  2  0  0  0  0
 28 50  1  0  0  0  0
 29 30  1  0  0  0  0
 29 51  1  0  0  0  0
M  END
> <PUBCHEM_COMPOUND_CID>
44584103

> <PUBCHEM_COMPOUND_CANONICALIZED>
1

> <PUBCHEM_CACTVS_COMPLEXITY>
569

> <PUBCHEM_CACTVS_HBOND_ACCEPTOR>
9

> <PUBCHEM_CACTVS_HBOND_DONOR>
6

> <PUBCHEM_CACTVS_ROTATABLE_BOND>
3

> <PUBCHEM_CACTVS_SUBSKEYS>
AAADceB4PAAAAAAAAAAAAAAAAAAAAAAAAAA0aIEAAAAAAACRQAAAGgAACAAADBSwmAMyDoAABgCAAiBCAAACCAAgIAAIiAAGCIgdNyKGMRqieCClwBUPuAfA4OwOIAAACAAIAABAAAAQABAAAAAAAAAAAA==

> <PUBCHEM_IUPAC_OPENEYE_NAME>
(2S,3R,4R,5R,6S)-2-[(2R,3R)-5,7-dihydroxy-2-(4-hydroxyphenyl)chroman-3-yl]oxy-6-methyl-tetrahydropyran-3,4,5-triol

> <PUBCHEM_IUPAC_CAS_NAME>
(2S,3R,4R,5R,6S)-2-[[(2R,3R)-5,7-dihydroxy-2-(4-hydroxyphenyl)-3,4-dihydro-2H-1-benzopyran-3-yl]oxy]-6-methyloxane-3,4,5-triol

> <PUBCHEM_IUPAC_NAME>
(2S,3R,4R,5R,6S)-2-[[(2R,3R)-5,7-dihydroxy-2-(4-hydroxyphenyl)-3,4-dihydro-2H-chromen-3-yl]oxy]-6-methyloxane-3,4,5-triol

> <PUBCHEM_IUPAC_SYSTEMATIC_NAME>
(2S,3R,4R,5R,6S)-2-[[(2R,3R)-2-(4-hydroxyphenyl)-5,7-bis(oxidanyl)-3,4-dihydro-2H-chromen-3-yl]oxy]-6-methyl-oxane-3,4,5-triol

> <PUBCHEM_IUPAC_TRADITIONAL_NAME>
(2S,3R,4R,5R,6S)-2-[(2R,3R)-5,7-dihydroxy-2-(4-hydroxyphenyl)chroman-3-yl]oxy-6-methyl-tetrahydropyran-3,4,5-triol

> <PUBCHEM_IUPAC_INCHI>
InChI=1S/C21H24O9/c1-9-17(25)18(26)19(27)21(28-9)30-16-8-13-14(24)6-12(23)7-15(13)29-20(16)10-2-4-11(22)5-3-10/h2-7,9,16-27H,8H2,1H3/t9-,16+,17-,18+,19+,20+,21-/m0/s1

> <PUBCHEM_IUPAC_INCHIKEY>
SQJLTDFIOMWZDE-LPKHTLNGSA-N

> <PUBCHEM_XLOGP3_AA>
0.7

> <PUBCHEM_EXACT_MASS>
420.142

> <PUBCHEM_MOLECULAR_FORMULA>
C21H24O9

> <PUBCHEM_MOLECULAR_WEIGHT>
420.414

> <PUBCHEM_OPENEYE_CAN_SMILES>
CC1C(C(C(C(O1)OC2CC3=C(C=C(C=C3OC2C4=CC=C(C=C4)O)O)O)O)O)O

> <PUBCHEM_OPENEYE_ISO_SMILES>
C[C@H]1[C@@H]([C@H]([C@H]([C@@H](O1)O[C@@H]2CC3=C(C=C(C=C3O[C@@H]2C4=CC=C(C=C4)O)O)O)O)O)O

> <PUBCHEM_CACTVS_TPSA>
149

> <PUBCHEM_MONOISOTOPIC_WEIGHT>
420.142

> <PUBCHEM_TOTAL_CHARGE>
0

> <PUBCHEM_HEAVY_ATOM_COUNT>
30

> <PUBCHEM_ATOM_DEF_STEREO_COUNT>
7

> <PUBCHEM_ATOM_UDEF_STEREO_COUNT>
0

> <PUBCHEM_BOND_DEF_STEREO_COUNT>
0

> <PUBCHEM_BOND_UDEF_STEREO_COUNT>
0

> <PUBCHEM_ISOTOPIC_ATOM_COUNT>
0

> <PUBCHEM_COMPONENT_COUNT>
1

> <PUBCHEM_CACTVS_TAUTO_COUNT>
18

> <PUBCHEM_COORDINATE_TYPE>
1
5
255

> <PUBCHEM_BONDANNOTATIONS>
11  1  5
14  1  6
15  19  6
16  20  6
18  21  8
18  22  8
20  24  8
20  25  8
21  23  8
22  26  8
23  27  8
24  28  8
25  29  8
26  27  8
28  30  8
29  30  8
10  4  6
12  5  6
13  6  5

$$$$
