3082069
  -OEChem-12071809182D

 53 56  0     1  0  0  0  0  0999 V2000
    8.4883    0.5714    0.0000 O   0  0  0  0  0  0  0  0  0  0  0  0
    3.8778   -0.1465    0.0000 C   0  0  1  0  0  0  0  0  0  0  0  0
    4.7853    0.3648    0.0000 C   0  0  1  0  0  0  0  0  0  0  0  0
    5.6538   -0.1308    0.0000 C   0  0  3  0  0  0  0  0  0  0  0  0
    3.8750   -1.1882    0.0000 C   0  0  1  0  0  0  0  0  0  0  0  0
    5.6751   -1.1722    0.0000 C   0  0  0  0  0  0  0  0  0  0  0  0
    2.9423   -1.7425    0.0000 C   0  0  0  0  0  0  0  0  0  0  0  0
    5.6293    1.0505    0.0000 C   0  0  0  0  0  0  0  0  0  0  0  0
    4.7797   -1.7045    0.0000 C   0  0  0  0  0  0  0  0  0  0  0  0
    4.6313    1.3529    0.0000 C   0  0  0  0  0  0  0  0  0  0  0  0
    6.3054    2.0196    0.0000 C   0  0  2  0  0  0  0  0  0  0  0  0
    2.9482    0.4129    0.0000 C   0  0  0  0  0  0  0  0  0  0  0  0
    5.3078    2.0894    0.0000 C   0  0  0  0  0  0  0  0  0  0  0  0
    6.5828    0.2391    0.0000 C   0  0  0  0  0  0  0  0  0  0  0  0
    2.0000   -1.2047    0.0000 C   0  0  0  0  0  0  0  0  0  0  0  0
    3.5384    0.7941    0.0000 C   0  0  0  0  0  0  0  0  0  0  0  0
    2.0029   -0.1197    0.0000 C   0  0  0  0  0  0  0  0  0  0  0  0
    6.8728    1.1962    0.0000 C   0  0  0  0  0  0  0  0  0  0  0  0
    2.4500   -2.6130    0.0000 C   0  0  0  0  0  0  0  0  0  0  0  0
    3.4500   -2.6041    0.0000 C   0  0  0  0  0  0  0  0  0  0  0  0
    7.8609    1.3502    0.0000 C   0  0  0  0  0  0  0  0  0  0  0  0
    4.2468    0.6722    0.0000 H   0  0  0  0  0  0  0  0  0  0  0  0
    3.8825   -2.0381    0.0000 H   0  0  0  0  0  0  0  0  0  0  0  0
    5.8960   -1.7516    0.0000 H   0  0  0  0  0  0  0  0  0  0  0  0
    6.2836   -1.0537    0.0000 H   0  0  0  0  0  0  0  0  0  0  0  0
    5.2551    1.5448    0.0000 H   0  0  0  0  0  0  0  0  0  0  0  0
    5.0436    0.8471    0.0000 H   0  0  0  0  0  0  0  0  0  0  0  0
    4.3847   -2.1824    0.0000 H   0  0  0  0  0  0  0  0  0  0  0  0
    5.1830   -2.1754    0.0000 H   0  0  0  0  0  0  0  0  0  0  0  0
    4.2795    1.8634    0.0000 H   0  0  0  0  0  0  0  0  0  0  0  0
    4.0553    1.1235    0.0000 H   0  0  0  0  0  0  0  0  0  0  0  0
    6.5519    2.8331    0.0000 H   0  0  0  0  0  0  0  0  0  0  0  0
    3.3541    0.8816    0.0000 H   0  0  0  0  0  0  0  0  0  0  0  0
    2.5559    0.8930    0.0000 H   0  0  0  0  0  0  0  0  0  0  0  0
    5.4876    2.6827    0.0000 H   0  0  0  0  0  0  0  0  0  0  0  0
    4.7694    2.3967    0.0000 H   0  0  0  0  0  0  0  0  0  0  0  0
    7.0394   -0.1803    0.0000 H   0  0  0  0  0  0  0  0  0  0  0  0
    1.3894   -1.0970    0.0000 H   0  0  0  0  0  0  0  0  0  0  0  0
    1.7894   -1.7879    0.0000 H   0  0  0  0  0  0  0  0  0  0  0  0
    4.1216    1.0046    0.0000 H   0  0  0  0  0  0  0  0  0  0  0  0
    3.3279    1.3773    0.0000 H   0  0  0  0  0  0  0  0  0  0  0  0
    2.9552    0.5836    0.0000 H   0  0  0  0  0  0  0  0  0  0  0  0
    1.7955    0.4645    0.0000 H   0  0  0  0  0  0  0  0  0  0  0  0
    1.3918   -0.2242    0.0000 H   0  0  0  0  0  0  0  0  0  0  0  0
    1.9104   -2.3077    0.0000 H   0  0  0  0  0  0  0  0  0  0  0  0
    2.1448   -3.1526    0.0000 H   0  0  0  0  0  0  0  0  0  0  0  0
    2.9897   -2.9182    0.0000 H   0  0  0  0  0  0  0  0  0  0  0  0
    2.9158   -2.9188    0.0000 H   0  0  0  0  0  0  0  0  0  0  0  0
    3.7647   -3.1383    0.0000 H   0  0  0  0  0  0  0  0  0  0  0  0
    3.9841   -2.2894    0.0000 H   0  0  0  0  0  0  0  0  0  0  0  0
    8.4039    1.6494    0.0000 H   0  0  0  0  0  0  0  0  0  0  0  0
    7.6605    1.9369    0.0000 H   0  0  0  0  0  0  0  0  0  0  0  0
    9.1009    0.6669    0.0000 H   0  0  0  0  0  0  0  0  0  0  0  0
  1 21  1  0  0  0  0
  1 53  1  0  0  0  0
  2  3  1  0  0  0  0
  2  5  1  0  0  0  0
  2 12  1  0  0  0  0
  2 16  1  6  0  0  0
  3  4  1  0  0  0  0
  3 10  1  0  0  0  0
  3 22  1  0  0  0  0
  4  6  1  0  0  0  0
  4  8  1  0  0  0  0
  4 14  1  0  0  0  0
  5  7  1  0  0  0  0
  5  9  1  0  0  0  0
  5 23  1  1  0  0  0
  6  9  1  0  0  0  0
  6 24  1  0  0  0  0
  6 25  1  0  0  0  0
  7 15  1  0  0  0  0
  7 19  1  0  0  0  0
  7 20  1  0  0  0  0
  8 11  1  0  0  0  0
  8 26  1  0  0  0  0
  8 27  1  0  0  0  0
  9 28  1  0  0  0  0
  9 29  1  0  0  0  0
 10 13  1  0  0  0  0
 10 30  1  0  0  0  0
 10 31  1  0  0  0  0
 11 13  1  0  0  0  0
 11 18  1  0  0  0  0
 11 32  1  1  0  0  0
 12 17  1  0  0  0  0
 12 33  1  0  0  0  0
 12 34  1  0  0  0  0
 13 35  1  0  0  0  0
 13 36  1  0  0  0  0
 14 18  2  0  0  0  0
 14 37  1  0  0  0  0
 15 17  1  0  0  0  0
 15 38  1  0  0  0  0
 15 39  1  0  0  0  0
 16 40  1  0  0  0  0
 16 41  1  0  0  0  0
 16 42  1  0  0  0  0
 17 43  1  0  0  0  0
 17 44  1  0  0  0  0
 18 21  1  0  0  0  0
 19 45  1  0  0  0  0
 19 46  1  0  0  0  0
 19 47  1  0  0  0  0
 20 48  1  0  0  0  0
 20 49  1  0  0  0  0
 20 50  1  0  0  0  0
 21 51  1  0  0  0  0
 21 52  1  0  0  0  0
M  END
> <PUBCHEM_COMPOUND_CID>
3082069

> <PUBCHEM_COMPOUND_CANONICALIZED>
1

> <PUBCHEM_CACTVS_COMPLEXITY>
476

> <PUBCHEM_CACTVS_HBOND_ACCEPTOR>
1

> <PUBCHEM_CACTVS_HBOND_DONOR>
1

> <PUBCHEM_CACTVS_ROTATABLE_BOND>
1

> <PUBCHEM_CACTVS_SUBSKEYS>
AAADcfB4IAAAAAAAAAAAAAAAAAAAAQAAAAAwYMAABAAAAADAAAAAGgAACAAADwCggAICAAAAAgCAAiBCAAAAAAAgAAAACAAAAAgAFAIAAQAAUAAEgAAIEAOAwPAPgAAAAAAAAACAAAQAACAAAAAAAAAAAA==

> <PUBCHEM_IUPAC_INCHI>
InChI=1S/C20H32O/c1-18(2)8-4-9-19(3)16(18)7-10-20-11-14(5-6-17(19)20)15(12-20)13-21/h12,14,16-17,21H,4-11,13H2,1-3H3/t14-,16+,17-,19+,20?/m0/s1

> <PUBCHEM_IUPAC_INCHIKEY>
BYNLGAZDLCEGRX-GTZPUNCASA-N

> <PUBCHEM_XLOGP3_AA>
5.6

> <PUBCHEM_EXACT_MASS>
288.245

> <PUBCHEM_MOLECULAR_FORMULA>
C20H32O

> <PUBCHEM_MOLECULAR_WEIGHT>
288.475

> <PUBCHEM_OPENEYE_CAN_SMILES>
CC1(CCCC2(C1CCC34C2CCC(C3)C(=C4)CO)C)C

> <PUBCHEM_OPENEYE_ISO_SMILES>
C[C@@]12CCCC([C@H]1CCC34[C@H]2CC[C@@H](C3)C(=C4)CO)(C)C

> <PUBCHEM_CACTVS_TPSA>
20.2

> <PUBCHEM_MONOISOTOPIC_WEIGHT>
288.245

> <PUBCHEM_TOTAL_CHARGE>
0

> <PUBCHEM_HEAVY_ATOM_COUNT>
21

> <PUBCHEM_ATOM_DEF_STEREO_COUNT>
4

> <PUBCHEM_ATOM_UDEF_STEREO_COUNT>
1

> <PUBCHEM_BOND_DEF_STEREO_COUNT>
0

> <PUBCHEM_BOND_UDEF_STEREO_COUNT>
0

> <PUBCHEM_ISOTOPIC_ATOM_COUNT>
0

> <PUBCHEM_COMPONENT_COUNT>
1

> <PUBCHEM_CACTVS_TAUTO_COUNT>
1

> <PUBCHEM_COORDINATE_TYPE>
1
5
255

> <PUBCHEM_BONDANNOTATIONS>
11  32  5
2  16  6
4  3  3
5  23  5

$$$$
