192547
  -OEChem-12071809212D

 36 38  0     1  0  0  0  0  0999 V2000
    4.6557   -1.4934    0.0000 O   0  0  0  0  0  0  0  0  0  0  0  0
    7.7244   -1.4934    0.0000 O   0  0  0  0  0  0  0  0  0  0  0  0
    7.4514   -3.2487    0.0000 O   0  0  0  0  0  0  0  0  0  0  0  0
    2.6691    1.6335    0.0000 O   0  0  0  0  0  0  0  0  0  0  0  0
    5.9637    2.7040    0.0000 O   0  0  0  0  0  0  0  0  0  0  0  0
    4.0074    3.1198    0.0000 O   0  0  0  0  0  0  0  0  0  0  0  0
    6.1945   -0.9934    0.0000 C   0  0  1  0  0  0  0  0  0  0  0  0
    6.1945   -1.9934    0.0000 C   0  0  2  0  0  0  0  0  0  0  0  0
    5.2435   -0.6844    0.0000 C   0  0  1  0  0  0  0  0  0  0  0  0
    5.2435   -2.3025    0.0000 C   0  0  0  0  0  0  0  0  0  0  0  0
    7.1407   -0.6887    0.0000 C   0  0  0  0  0  0  0  0  0  0  0  0
    7.1407   -2.2982    0.0000 C   0  0  0  0  0  0  0  0  0  0  0  0
    4.9344    0.2666    0.0000 C   0  0  0  0  0  0  0  0  0  0  0  0
    5.6036    1.0098    0.0000 C   0  0  0  0  0  0  0  0  0  0  0  0
    3.9563    0.4745    0.0000 C   0  0  0  0  0  0  0  0  0  0  0  0
    3.6473    1.4256    0.0000 C   0  0  0  0  0  0  0  0  0  0  0  0
    5.2946    1.9608    0.0000 C   0  0  0  0  0  0  0  0  0  0  0  0
    4.3164    2.1687    0.0000 C   0  0  0  0  0  0  0  0  0  0  0  0
    2.0000    0.8904    0.0000 C   0  0  0  0  0  0  0  0  0  0  0  0
    6.9418    2.4961    0.0000 C   0  0  0  0  0  0  0  0  0  0  0  0
    6.1956   -0.1434    0.0000 H   0  0  0  0  0  0  0  0  0  0  0  0
    6.1956   -2.8434    0.0000 H   0  0  0  0  0  0  0  0  0  0  0  0
    4.6311   -0.5874    0.0000 H   0  0  0  0  0  0  0  0  0  0  0  0
    4.7065   -2.6125    0.0000 H   0  0  0  0  0  0  0  0  0  0  0  0
    5.4956   -2.8689    0.0000 H   0  0  0  0  0  0  0  0  0  0  0  0
    7.6781   -0.3795    0.0000 H   0  0  0  0  0  0  0  0  0  0  0  0
    6.8897   -0.1218    0.0000 H   0  0  0  0  0  0  0  0  0  0  0  0
    6.2100    0.8809    0.0000 H   0  0  0  0  0  0  0  0  0  0  0  0
    3.5414    0.0138    0.0000 H   0  0  0  0  0  0  0  0  0  0  0  0
    3.4009    3.2487    0.0000 H   0  0  0  0  0  0  0  0  0  0  0  0
    1.5392    1.3052    0.0000 H   0  0  0  0  0  0  0  0  0  0  0  0
    1.5851    0.4296    0.0000 H   0  0  0  0  0  0  0  0  0  0  0  0
    2.4608    0.4755    0.0000 H   0  0  0  0  0  0  0  0  0  0  0  0
    6.8129    1.8896    0.0000 H   0  0  0  0  0  0  0  0  0  0  0  0
    7.5483    2.3672    0.0000 H   0  0  0  0  0  0  0  0  0  0  0  0
    7.0707    3.1025    0.0000 H   0  0  0  0  0  0  0  0  0  0  0  0
  1  9  1  0  0  0  0
  1 10  1  0  0  0  0
  2 11  1  0  0  0  0
  2 12  1  0  0  0  0
  3 12  2  0  0  0  0
  4 16  1  0  0  0  0
  4 19  1  0  0  0  0
  5 17  1  0  0  0  0
  5 20  1  0  0  0  0
  6 18  1  0  0  0  0
  6 30  1  0  0  0  0
  7  8  1  0  0  0  0
  7  9  1  0  0  0  0
  7 11  1  0  0  0  0
  7 21  1  6  0  0  0
  8 10  1  0  0  0  0
  8 12  1  0  0  0  0
  8 22  1  6  0  0  0
  9 13  1  6  0  0  0
  9 23  1  0  0  0  0
 10 24  1  0  0  0  0
 10 25  1  0  0  0  0
 11 26  1  0  0  0  0
 11 27  1  0  0  0  0
 13 14  2  0  0  0  0
 13 15  1  0  0  0  0
 14 17  1  0  0  0  0
 14 28  1  0  0  0  0
 15 16  2  0  0  0  0
 15 29  1  0  0  0  0
 16 18  1  0  0  0  0
 17 18  2  0  0  0  0
 19 31  1  0  0  0  0
 19 32  1  0  0  0  0
 19 33  1  0  0  0  0
 20 34  1  0  0  0  0
 20 35  1  0  0  0  0
 20 36  1  0  0  0  0
M  END
> <PUBCHEM_COMPOUND_CID>
192547

> <PUBCHEM_COMPOUND_CANONICALIZED>
1

> <PUBCHEM_CACTVS_COMPLEXITY>
359

> <PUBCHEM_CACTVS_HBOND_ACCEPTOR>
6

> <PUBCHEM_CACTVS_HBOND_DONOR>
1

> <PUBCHEM_CACTVS_ROTATABLE_BOND>
3

> <PUBCHEM_CACTVS_SUBSKEYS>
AAADceBwOAAAAAAAAAAAAAAAAAAAASJAAAAwAAAAAAASAAABAAAAGgAACAAADRSgmAIyDoAABgCIAiDSCAACCAAgIAAAiAEGiIgNJzaGMRqCcCMl4BULuAfK6PyOoAABCAAAQABAAAIQAACAAAAAAAAAAA==

> <PUBCHEM_IUPAC_OPENEYE_NAME>
(3S,3aR,6aR)-3-(4-hydroxy-3,5-dimethoxy-phenyl)-3,3a,4,6a-tetrahydro-1H-furo[3,4-c]furan-6-one

> <PUBCHEM_IUPAC_CAS_NAME>
(3S,3aR,6aR)-3-(4-hydroxy-3,5-dimethoxyphenyl)-3,3a,4,6a-tetrahydro-1H-furo[3,4-c]furan-6-one

> <PUBCHEM_IUPAC_NAME>
(3S,3aR,6aR)-3-(4-hydroxy-3,5-dimethoxyphenyl)-3,3a,4,6a-tetrahydro-1H-furo[3,4-c]furan-6-one

> <PUBCHEM_IUPAC_SYSTEMATIC_NAME>
(3S,3aR,6aR)-3-(3,5-dimethoxy-4-oxidanyl-phenyl)-3,3a,4,6a-tetrahydro-1H-furo[3,4-c]furan-6-one

> <PUBCHEM_IUPAC_TRADITIONAL_NAME>
(3S,3aR,6aR)-3-(4-hydroxy-3,5-dimethoxy-phenyl)-3,3a,4,6a-tetrahydro-1H-furo[3,4-c]furan-6-one

> <PUBCHEM_IUPAC_INCHI>
InChI=1S/C14H16O6/c1-17-10-3-7(4-11(18-2)12(10)15)13-8-5-20-14(16)9(8)6-19-13/h3-4,8-9,13,15H,5-6H2,1-2H3/t8-,9-,13+/m0/s1

> <PUBCHEM_IUPAC_INCHIKEY>
AUXYOVQIZNPKSO-MWODSPESSA-N

> <PUBCHEM_XLOGP3_AA>
0.9

> <PUBCHEM_EXACT_MASS>
280.095

> <PUBCHEM_MOLECULAR_FORMULA>
C14H16O6

> <PUBCHEM_MOLECULAR_WEIGHT>
280.276

> <PUBCHEM_OPENEYE_CAN_SMILES>
COC1=CC(=CC(=C1O)OC)C2C3COC(=O)C3CO2

> <PUBCHEM_OPENEYE_ISO_SMILES>
COC1=CC(=CC(=C1O)OC)[C@@H]2[C@H]3COC(=O)[C@H]3CO2

> <PUBCHEM_CACTVS_TPSA>
74.2

> <PUBCHEM_MONOISOTOPIC_WEIGHT>
280.095

> <PUBCHEM_TOTAL_CHARGE>
0

> <PUBCHEM_HEAVY_ATOM_COUNT>
20

> <PUBCHEM_ATOM_DEF_STEREO_COUNT>
3

> <PUBCHEM_ATOM_UDEF_STEREO_COUNT>
0

> <PUBCHEM_BOND_DEF_STEREO_COUNT>
0

> <PUBCHEM_BOND_UDEF_STEREO_COUNT>
0

> <PUBCHEM_ISOTOPIC_ATOM_COUNT>
0

> <PUBCHEM_COMPONENT_COUNT>
1

> <PUBCHEM_CACTVS_TAUTO_COUNT>
4

> <PUBCHEM_COORDINATE_TYPE>
1
5
255

> <PUBCHEM_BONDANNOTATIONS>
13  14  8
13  15  8
14  17  8
15  16  8
16  18  8
17  18  8
7  21  6
8  22  6
9  13  6

$$$$
