131751320
  -OEChem-12071809302D

157163  0     1  0  0  0  0  0999 V2000
    5.1643    4.2304    0.0000 O   0  0  0  0  0  0  0  0  0  0  0  0
    6.8671   -1.9598    0.0000 O   0  0  0  0  0  0  0  0  0  0  0  0
    5.7604    6.6931    0.0000 O   0  0  0  0  0  0  0  0  0  0  0  0
    5.1350   -1.9598    0.0000 O   0  0  0  0  0  0  0  0  0  0  0  0
    5.3966    8.3865    0.0000 O   0  0  0  0  0  0  0  0  0  0  0  0
    6.8671   -3.9598    0.0000 O   0  0  0  0  0  0  0  0  0  0  0  0
    7.7158    7.1131    0.0000 O   0  0  0  0  0  0  0  0  0  0  0  0
    5.1350   -4.9598    0.0000 O   0  0  0  0  0  0  0  0  0  0  0  0
    8.3298    9.0165    0.0000 O   0  0  0  0  0  0  0  0  0  0  0  0
    3.4030   -3.9598    0.0000 O   0  0  0  0  0  0  0  0  0  0  0  0
    6.9884   10.5000    0.0000 O   0  0  0  0  0  0  0  0  0  0  0  0
    6.0010   -5.4598    0.0000 O   0  0  0  0  0  0  0  0  0  0  0  0
    2.5369   -2.4598    0.0000 O   0  0  0  0  0  0  0  0  0  0  0  0
    4.0552    9.8700    0.0000 O   0  0  0  0  0  0  0  0  0  0  0  0
    8.5991   -4.9598    0.0000 O   0  0  0  0  0  0  0  0  0  0  0  0
    8.5991   -6.9598    0.0000 O   0  0  0  0  0  0  0  0  0  0  0  0
    6.8671   -7.9598    0.0000 O   0  0  0  0  0  0  0  0  0  0  0  0
    5.1350   -7.9598    0.0000 O   0  0  0  0  0  0  0  0  0  0  0  0
    3.4030   -7.9598    0.0000 O   0  0  0  0  0  0  0  0  0  0  0  0
    7.7681    2.7404    0.0000 C   0  0  3  0  0  0  0  0  0  0  0  0
    7.7643    3.7404    0.0000 C   0  0  3  0  0  0  0  0  0  0  0  0
    6.9040    2.2371    0.0000 C   0  0  3  0  0  0  0  0  0  0  0  0
    6.8920    1.1955    0.0000 C   0  0  3  0  0  0  0  0  0  0  0  0
    6.8963    4.2370    0.0000 C   0  0  3  0  0  0  0  0  0  0  0  0
    7.7920    0.6712    0.0000 C   0  0  3  0  0  0  0  0  0  0  0  0
    8.6801    2.2371    0.0000 C   0  0  0  0  0  0  0  0  0  0  0  0
    7.1018    5.2097    0.0000 C   0  0  3  0  0  0  0  0  0  0  0  0
    6.0361    2.7337    0.0000 C   0  0  0  0  0  0  0  0  0  0  0  0
    6.0322    3.7337    0.0000 C   0  0  3  0  0  0  0  0  0  0  0  0
    8.4987    4.4103    0.0000 C   0  0  0  0  0  0  0  0  0  0  0  0
    8.6921    1.1955    0.0000 C   0  0  0  0  0  0  0  0  0  0  0  0
    7.8046   -0.4137    0.0000 C   0  0  0  0  0  0  0  0  0  0  0  0
    8.0901    5.3165    0.0000 C   0  0  0  0  0  0  0  0  0  0  0  0
    5.9421    0.6712    0.0000 C   0  0  0  0  0  0  0  0  0  0  0  0
    8.7522    2.9178    0.0000 C   0  0  0  0  0  0  0  0  0  0  0  0
    8.7497    3.5705    0.0000 C   0  0  0  0  0  0  0  0  0  0  0  0
    6.0279    1.6988    0.0000 C   0  0  0  0  0  0  0  0  0  0  0  0
    6.8671   -0.9598    0.0000 C   0  0  3  0  0  0  0  0  0  0  0  0
    6.4311    5.9514    0.0000 C   0  0  3  0  0  0  0  0  0  0  0  0
    5.9295   -0.4137    0.0000 C   0  0  0  0  0  0  0  0  0  0  0  0
    8.8046   -0.4060    0.0000 C   0  0  0  0  0  0  0  0  0  0  0  0
    8.3113   -1.2758    0.0000 C   0  0  0  0  0  0  0  0  0  0  0  0
    7.1728    6.6221    0.0000 C   0  0  0  0  0  0  0  0  0  0  0  0
    5.6894    5.2807    0.0000 C   0  0  0  0  0  0  0  0  0  0  0  0
    8.1245    6.3151    0.0000 C   0  0  0  0  0  0  0  0  0  0  0  0
    6.0010   -2.4598    0.0000 C   0  0  3  0  0  0  0  0  0  0  0  0
    6.0674    7.6448    0.0000 C   0  0  3  0  0  0  0  0  0  0  0  0
    6.0010   -3.4598    0.0000 C   0  0  3  0  0  0  0  0  0  0  0  0
    7.0451    7.8548    0.0000 C   0  0  3  0  0  0  0  0  0  0  0  0
    8.8662    6.9858    0.0000 C   0  0  0  0  0  0  0  0  0  0  0  0
    5.1350   -3.9598    0.0000 C   0  0  3  0  0  0  0  0  0  0  0  0
    7.3521    8.8065    0.0000 C   0  0  3  0  0  0  0  0  0  0  0  0
    4.2690   -2.4598    0.0000 C   0  0  3  0  0  0  0  0  0  0  0  0
    5.7036    9.3382    0.0000 C   0  0  3  0  0  0  0  0  0  0  0  0
    4.2690   -3.4598    0.0000 C   0  0  3  0  0  0  0  0  0  0  0  0
    6.6814    9.5482    0.0000 C   0  0  3  0  0  0  0  0  0  0  0  0
    9.8179    6.6788    0.0000 C   0  0  0  0  0  0  0  0  0  0  0  0
    3.4030   -1.9598    0.0000 C   0  0  0  0  0  0  0  0  0  0  0  0
    5.0329   10.0800    0.0000 C   0  0  0  0  0  0  0  0  0  0  0  0
    6.8671   -4.9598    0.0000 C   0  0  3  0  0  0  0  0  0  0  0  0
   10.5597    7.3495    0.0000 C   0  0  0  0  0  0  0  0  0  0  0  0
   10.0279    5.7011    0.0000 C   0  0  0  0  0  0  0  0  0  0  0  0
    7.7331   -5.4598    0.0000 C   0  0  3  0  0  0  0  0  0  0  0  0
    7.7331   -6.4598    0.0000 C   0  0  3  0  0  0  0  0  0  0  0  0
    6.0010   -6.4598    0.0000 C   0  0  3  0  0  0  0  0  0  0  0  0
    6.8671   -6.9598    0.0000 C   0  0  3  0  0  0  0  0  0  0  0  0
    5.1350   -6.9598    0.0000 C   0  0  0  0  0  0  0  0  0  0  0  0
    4.2690   -8.4598    0.0000 C   0  0  0  0  0  0  0  0  0  0  0  0
    4.2690   -9.4598    0.0000 C   0  0  0  0  0  0  0  0  0  0  0  0
    3.4030   -9.9598    0.0000 C   0  0  0  0  0  0  0  0  0  0  0  0
    3.4030  -10.9598    0.0000 C   0  0  0  0  0  0  0  0  0  0  0  0
    7.4398    1.9250    0.0000 H   0  0  0  0  0  0  0  0  0  0  0  0
    6.3938    4.6002    0.0000 H   0  0  0  0  0  0  0  0  0  0  0  0
    8.3314    0.3654    0.0000 H   0  0  0  0  0  0  0  0  0  0  0  0
    9.2921    2.1380    0.0000 H   0  0  0  0  0  0  0  0  0  0  0  0
    8.8824    2.8231    0.0000 H   0  0  0  0  0  0  0  0  0  0  0  0
    7.3225    5.7890    0.0000 H   0  0  0  0  0  0  0  0  0  0  0  0
    5.4251    2.8390    0.0000 H   0  0  0  0  0  0  0  0  0  0  0  0
    5.8263    2.1503    0.0000 H   0  0  0  0  0  0  0  0  0  0  0  0
    6.0298    4.3537    0.0000 H   0  0  0  0  0  0  0  0  0  0  0  0
    8.8661    3.9109    0.0000 H   0  0  0  0  0  0  0  0  0  0  0  0
    9.0340    4.7232    0.0000 H   0  0  0  0  0  0  0  0  0  0  0  0
    8.9079    0.6143    0.0000 H   0  0  0  0  0  0  0  0  0  0  0  0
    9.3017    1.3086    0.0000 H   0  0  0  0  0  0  0  0  0  0  0  0
    8.6790    5.5106    0.0000 H   0  0  0  0  0  0  0  0  0  0  0  0
    7.9590    5.9225    0.0000 H   0  0  0  0  0  0  0  0  0  0  0  0
    5.7398    1.2573    0.0000 H   0  0  0  0  0  0  0  0  0  0  0  0
    5.3300    0.5722    0.0000 H   0  0  0  0  0  0  0  0  0  0  0  0
    8.8623    2.3077    0.0000 H   0  0  0  0  0  0  0  0  0  0  0  0
    9.3624    3.0279    0.0000 H   0  0  0  0  0  0  0  0  0  0  0  0
    8.6422    3.5280    0.0000 H   0  0  0  0  0  0  0  0  0  0  0  0
    8.6444    2.9596    0.0000 H   0  0  0  0  0  0  0  0  0  0  0  0
    9.3607    3.4652    0.0000 H   0  0  0  0  0  0  0  0  0  0  0  0
    8.8550    4.1815    0.0000 H   0  0  0  0  0  0  0  0  0  0  0  0
    6.3400    2.2346    0.0000 H   0  0  0  0  0  0  0  0  0  0  0  0
    5.4922    2.0109    0.0000 H   0  0  0  0  0  0  0  0  0  0  0  0
    5.7158    1.1631    0.0000 H   0  0  0  0  0  0  0  0  0  0  0  0
    7.4046   -1.2688    0.0000 H   0  0  0  0  0  0  0  0  0  0  0  0
    5.3199   -0.3006    0.0000 H   0  0  0  0  0  0  0  0  0  0  0  0
    5.7137   -0.9949    0.0000 H   0  0  0  0  0  0  0  0  0  0  0  0
    8.8094   -1.0260    0.0000 H   0  0  0  0  0  0  0  0  0  0  0  0
    9.4246   -0.4012    0.0000 H   0  0  0  0  0  0  0  0  0  0  0  0
    7.7767   -1.5900    0.0000 H   0  0  0  0  0  0  0  0  0  0  0  0
    8.6254   -1.8104    0.0000 H   0  0  0  0  0  0  0  0  0  0  0  0
    8.8458   -0.9617    0.0000 H   0  0  0  0  0  0  0  0  0  0  0  0
    8.7998    0.2140    0.0000 H   0  0  0  0  0  0  0  0  0  0  0  0
    4.6286    3.9183    0.0000 H   0  0  0  0  0  0  0  0  0  0  0  0
    7.4627    7.1701    0.0000 H   0  0  0  0  0  0  0  0  0  0  0  0
    6.6834    7.0028    0.0000 H   0  0  0  0  0  0  0  0  0  0  0  0
    5.2735    5.7406    0.0000 H   0  0  0  0  0  0  0  0  0  0  0  0
    5.2295    4.8648    0.0000 H   0  0  0  0  0  0  0  0  0  0  0  0
    6.1052    4.8208    0.0000 H   0  0  0  0  0  0  0  0  0  0  0  0
    7.8346    5.7671    0.0000 H   0  0  0  0  0  0  0  0  0  0  0  0
    8.6139    5.9344    0.0000 H   0  0  0  0  0  0  0  0  0  0  0  0
    6.0010   -1.8398    0.0000 H   0  0  0  0  0  0  0  0  0  0  0  0
    6.4832    7.1850    0.0000 H   0  0  0  0  0  0  0  0  0  0  0  0
    6.0010   -4.0798    0.0000 H   0  0  0  0  0  0  0  0  0  0  0  0
    7.6512    7.9850    0.0000 H   0  0  0  0  0  0  0  0  0  0  0  0
    8.7360    7.5920    0.0000 H   0  0  0  0  0  0  0  0  0  0  0  0
    4.5981   -4.2698    0.0000 H   0  0  0  0  0  0  0  0  0  0  0  0
    7.5424    9.3966    0.0000 H   0  0  0  0  0  0  0  0  0  0  0  0
    4.2690   -1.8398    0.0000 H   0  0  0  0  0  0  0  0  0  0  0  0
    5.0975    9.2081    0.0000 H   0  0  0  0  0  0  0  0  0  0  0  0
    4.2690   -4.0798    0.0000 H   0  0  0  0  0  0  0  0  0  0  0  0
    6.2655   10.0081    0.0000 H   0  0  0  0  0  0  0  0  0  0  0  0
    8.3220    7.2433    0.0000 H   0  0  0  0  0  0  0  0  0  0  0  0
    3.8015   -1.4849    0.0000 H   0  0  0  0  0  0  0  0  0  0  0  0
    3.0044   -1.4849    0.0000 H   0  0  0  0  0  0  0  0  0  0  0  0
    5.5580   10.4096    0.0000 H   0  0  0  0  0  0  0  0  0  0  0  0
    4.7995   10.6543    0.0000 H   0  0  0  0  0  0  0  0  0  0  0  0
    7.4040   -4.6498    0.0000 H   0  0  0  0  0  0  0  0  0  0  0  0
    4.5981   -5.2698    0.0000 H   0  0  0  0  0  0  0  0  0  0  0  0
    8.5201    9.6066    0.0000 H   0  0  0  0  0  0  0  0  0  0  0  0
    9.4218    5.5709    0.0000 H   0  0  0  0  0  0  0  0  0  0  0  0
   10.9755    6.8896    0.0000 H   0  0  0  0  0  0  0  0  0  0  0  0
   11.0195    7.7654    0.0000 H   0  0  0  0  0  0  0  0  0  0  0  0
   10.1438    7.8094    0.0000 H   0  0  0  0  0  0  0  0  0  0  0  0
   10.1581    5.0949    0.0000 H   0  0  0  0  0  0  0  0  0  0  0  0
   10.6341    5.8313    0.0000 H   0  0  0  0  0  0  0  0  0  0  0  0
    3.4030   -4.5798    0.0000 H   0  0  0  0  0  0  0  0  0  0  0  0
    6.5725   10.9598    0.0000 H   0  0  0  0  0  0  0  0  0  0  0  0
    8.2700   -5.7698    0.0000 H   0  0  0  0  0  0  0  0  0  0  0  0
    2.0000   -2.1498    0.0000 H   0  0  0  0  0  0  0  0  0  0  0  0
    3.6394   10.3299    0.0000 H   0  0  0  0  0  0  0  0  0  0  0  0
    7.7331   -7.0798    0.0000 H   0  0  0  0  0  0  0  0  0  0  0  0
    5.4641   -6.1498    0.0000 H   0  0  0  0  0  0  0  0  0  0  0  0
    7.4040   -7.2698    0.0000 H   0  0  0  0  0  0  0  0  0  0  0  0
    8.5991   -4.3398    0.0000 H   0  0  0  0  0  0  0  0  0  0  0  0
    4.9230   -6.3772    0.0000 H   0  0  0  0  0  0  0  0  0  0  0  0
    4.5244   -7.0675    0.0000 H   0  0  0  0  0  0  0  0  0  0  0  0
    9.1360   -6.6498    0.0000 H   0  0  0  0  0  0  0  0  0  0  0  0
    7.4040   -8.2698    0.0000 H   0  0  0  0  0  0  0  0  0  0  0  0
    4.8059   -9.7698    0.0000 H   0  0  0  0  0  0  0  0  0  0  0  0
    2.8660   -9.6498    0.0000 H   0  0  0  0  0  0  0  0  0  0  0  0
    2.7830  -10.9598    0.0000 H   0  0  0  0  0  0  0  0  0  0  0  0
    3.4030  -11.5798    0.0000 H   0  0  0  0  0  0  0  0  0  0  0  0
    4.0230  -10.9598    0.0000 H   0  0  0  0  0  0  0  0  0  0  0  0
  1 29  1  0  0  0  0
  1107  1  0  0  0  0
  2 38  1  0  0  0  0
  2 46  1  0  0  0  0
  3 39  1  0  0  0  0
  3 47  1  0  0  0  0
  4 46  1  0  0  0  0
  4 53  1  0  0  0  0
  5 47  1  0  0  0  0
  5 54  1  0  0  0  0
  6 48  1  0  0  0  0
  6 60  1  0  0  0  0
  7 49  1  0  0  0  0
  7126  1  0  0  0  0
  8 51  1  0  0  0  0
  8132  1  0  0  0  0
  9 52  1  0  0  0  0
  9133  1  0  0  0  0
 10 55  1  0  0  0  0
 10140  1  0  0  0  0
 11 56  1  0  0  0  0
 11141  1  0  0  0  0
 12 60  1  0  0  0  0
 12 65  1  0  0  0  0
 13 58  1  0  0  0  0
 13143  1  0  0  0  0
 14 59  1  0  0  0  0
 14144  1  0  0  0  0
 15 63  1  0  0  0  0
 15148  1  0  0  0  0
 16 64  1  0  0  0  0
 16151  1  0  0  0  0
 17 66  1  0  0  0  0
 17152  1  0  0  0  0
 18 67  1  0  0  0  0
 18 68  1  0  0  0  0
 19 68  2  0  0  0  0
 20 21  1  0  0  0  0
 20 22  1  0  0  0  0
 20 26  1  0  0  0  0
 20 35  1  0  0  0  0
 21 24  1  0  0  0  0
 21 30  1  0  0  0  0
 21 36  1  0  0  0  0
 22 23  1  0  0  0  0
 22 28  1  0  0  0  0
 22 72  1  0  0  0  0
 23 25  1  0  0  0  0
 23 34  1  0  0  0  0
 23 37  1  0  0  0  0
 24 27  1  0  0  0  0
 24 29  1  0  0  0  0
 24 73  1  0  0  0  0
 25 31  1  0  0  0  0
 25 32  1  0  0  0  0
 25 74  1  0  0  0  0
 26 31  1  0  0  0  0
 26 75  1  0  0  0  0
 26 76  1  0  0  0  0
 27 33  1  0  0  0  0
 27 39  1  0  0  0  0
 27 77  1  0  0  0  0
 28 29  1  0  0  0  0
 28 78  1  0  0  0  0
 28 79  1  0  0  0  0
 29 80  1  0  0  0  0
 30 33  1  0  0  0  0
 30 81  1  0  0  0  0
 30 82  1  0  0  0  0
 31 83  1  0  0  0  0
 31 84  1  0  0  0  0
 32 38  1  0  0  0  0
 32 41  1  0  0  0  0
 32 42  1  0  0  0  0
 33 85  1  0  0  0  0
 33 86  1  0  0  0  0
 34 40  1  0  0  0  0
 34 87  1  0  0  0  0
 34 88  1  0  0  0  0
 35 89  1  0  0  0  0
 35 90  1  0  0  0  0
 35 91  1  0  0  0  0
 36 92  1  0  0  0  0
 36 93  1  0  0  0  0
 36 94  1  0  0  0  0
 37 95  1  0  0  0  0
 37 96  1  0  0  0  0
 37 97  1  0  0  0  0
 38 40  1  0  0  0  0
 38 98  1  0  0  0  0
 39 43  1  0  0  0  0
 39 44  1  0  0  0  0
 40 99  1  0  0  0  0
 40100  1  0  0  0  0
 41101  1  0  0  0  0
 41102  1  0  0  0  0
 41106  1  0  0  0  0
 42103  1  0  0  0  0
 42104  1  0  0  0  0
 42105  1  0  0  0  0
 43 45  1  0  0  0  0
 43108  1  0  0  0  0
 43109  1  0  0  0  0
 44110  1  0  0  0  0
 44111  1  0  0  0  0
 44112  1  0  0  0  0
 45 50  1  0  0  0  0
 45113  1  0  0  0  0
 45114  1  0  0  0  0
 46 48  1  0  0  0  0
 46115  1  0  0  0  0
 47 49  1  0  0  0  0
 47116  1  0  0  0  0
 48 51  1  0  0  0  0
 48117  1  0  0  0  0
 49 52  1  0  0  0  0
 49118  1  0  0  0  0
 50 57  2  0  0  0  0
 50119  1  0  0  0  0
 51 55  1  0  0  0  0
 51120  1  0  0  0  0
 52 56  1  0  0  0  0
 52121  1  0  0  0  0
 53 55  1  0  0  0  0
 53 58  1  0  0  0  0
 53122  1  0  0  0  0
 54 56  1  0  0  0  0
 54 59  1  0  0  0  0
 54123  1  0  0  0  0
 55124  1  0  0  0  0
 56125  1  0  0  0  0
 57 61  1  0  0  0  0
 57 62  1  0  0  0  0
 58127  1  0  0  0  0
 58128  1  0  0  0  0
 59129  1  0  0  0  0
 59130  1  0  0  0  0
 60 63  1  0  0  0  0
 60131  1  0  0  0  0
 61135  1  0  0  0  0
 61136  1  0  0  0  0
 61137  1  0  0  0  0
 62134  1  0  0  0  0
 62138  1  0  0  0  0
 62139  1  0  0  0  0
 63 64  1  0  0  0  0
 63142  1  0  0  0  0
 64 66  1  0  0  0  0
 64145  1  0  0  0  0
 65 66  1  0  0  0  0
 65 67  1  0  0  0  0
 65146  1  0  0  0  0
 66147  1  0  0  0  0
 67149  1  0  0  0  0
 67150  1  0  0  0  0
 68 69  1  0  0  0  0
 69 70  2  0  0  0  0
 69153  1  0  0  0  0
 70 71  1  0  0  0  0
 70154  1  0  0  0  0
 71155  1  0  0  0  0
 71156  1  0  0  0  0
 71157  1  0  0  0  0
M  END
> <PUBCHEM_COMPOUND_CID>
131751320

> <PUBCHEM_COMPOUND_CANONICALIZED>
1

> <PUBCHEM_CACTVS_COMPLEXITY>
1880

> <PUBCHEM_CACTVS_HBOND_ACCEPTOR>
19

> <PUBCHEM_CACTVS_HBOND_DONOR>
11

> <PUBCHEM_CACTVS_ROTATABLE_BOND>
16

> <PUBCHEM_CACTVS_SUBSKEYS>
AAADcfB8PgAAAAAAAAAAAAAAAAAAAYAAAAA0aNECAAAAAGDAAAAAGgAACAAAD1SwgAMCCAAABgCIAiDSCAAAAAAgAAAICAAAAEgRFAIAIQAiUAAFgAAPIYPA4PwPgAAAAAAAAADAAAYAADAAAQAACAAAAA==

> <PUBCHEM_IUPAC_OPENEYE_NAME>
[6-[2-[[17-[1,5-dimethyl-1-[3,4,5-trihydroxy-6-(hydroxymethyl)tetrahydropyran-2-yl]oxy-hex-4-enyl]-12-hydroxy-4,4,8,10,14-pentamethyl-2,3,5,6,7,9,11,12,13,15,16,17-dodecahydro-1H-cyclopenta[a]phenanthren-3-yl]oxy]-4,5-dihydroxy-6-(hydroxymethyl)tetrahydropyran-3-yl]oxy-3,4,5-trihydroxy-tetrahydropyran-2-yl]methyl (E)-but-2-enoate

> <PUBCHEM_IUPAC_CAS_NAME>
(E)-2-butenoic acid [6-[[4,5-dihydroxy-6-(hydroxymethyl)-2-[[12-hydroxy-4,4,8,10,14-pentamethyl-17-[6-methyl-2-[[3,4,5-trihydroxy-6-(hydroxymethyl)-2-oxanyl]oxy]hept-5-en-2-yl]-2,3,5,6,7,9,11,12,13,15,16,17-dodecahydro-1H-cyclopenta[a]phenanthren-3-yl]oxy]-3-oxanyl]oxy]-3,4,5-trihydroxy-2-oxanyl]methyl ester

> <PUBCHEM_IUPAC_NAME>
[6-[4,5-dihydroxy-6-(hydroxymethyl)-2-[[12-hydroxy-4,4,8,10,14-pentamethyl-17-[6-methyl-2-[3,4,5-trihydroxy-6-(hydroxymethyl)oxan-2-yl]oxyhept-5-en-2-yl]-2,3,5,6,7,9,11,12,13,15,16,17-dodecahydro-1H-cyclopenta[a]phenanthren-3-yl]oxy]oxan-3-yl]oxy-3,4,5-trihydroxyoxan-2-yl]methyl (E)-but-2-enoate

> <PUBCHEM_IUPAC_SYSTEMATIC_NAME>
[6-[6-(hydroxymethyl)-2-[[17-[2-[6-(hydroxymethyl)-3,4,5-tris(oxidanyl)oxan-2-yl]oxy-6-methyl-hept-5-en-2-yl]-4,4,8,10,14-pentamethyl-12-oxidanyl-2,3,5,6,7,9,11,12,13,15,16,17-dodecahydro-1H-cyclopenta[a]phenanthren-3-yl]oxy]-4,5-bis(oxidanyl)oxan-3-yl]oxy-3,4,5-tris(oxidanyl)oxan-2-yl]methyl (E)-but-2-enoate

> <PUBCHEM_IUPAC_TRADITIONAL_NAME>
(E)-but-2-enoic acid [6-[2-[[17-[1,5-dimethyl-1-(3,4,5-trihydroxy-6-methylol-tetrahydropyran-2-yl)oxy-hex-4-enyl]-12-hydroxy-4,4,8,10,14-pentamethyl-2,3,5,6,7,9,11,12,13,15,16,17-dodecahydro-1H-cyclopenta[a]phenanthren-3-yl]oxy]-4,5-dihydroxy-6-methylol-tetrahydropyran-3-yl]oxy-3,4,5-trihydroxy-tetrahydropyran-2-yl]methyl ester

> <PUBCHEM_IUPAC_INCHI>
InChI=1S/C52H86O19/c1-10-12-34(56)65-24-30-38(59)40(61)42(63)45(68-30)70-44-41(62)37(58)29(23-54)67-47(44)69-33-16-18-49(6)31(48(33,4)5)15-20-50(7)32(49)21-27(55)35-26(14-19-51(35,50)8)52(9,17-11-13-25(2)3)71-46-43(64)39(60)36(57)28(22-53)66-46/h10,12-13,26-33,35-47,53-55,57-64H,11,14-24H2,1-9H3/b12-10+

> <PUBCHEM_IUPAC_INCHIKEY>
BTRPYCUFCMLYGV-ZRDIBKRKSA-N

> <PUBCHEM_EXACT_MASS>
1014.576

> <PUBCHEM_MOLECULAR_FORMULA>
C52H86O19

> <PUBCHEM_MOLECULAR_WEIGHT>
1015.241

> <PUBCHEM_OPENEYE_CAN_SMILES>
CC=CC(=O)OCC1C(C(C(C(O1)OC2C(C(C(OC2OC3CCC4(C(C3(C)C)CCC5(C4CC(C6C5(CCC6C(C)(CCC=C(C)C)OC7C(C(C(C(O7)CO)O)O)O)C)O)C)C)CO)O)O)O)O)O

> <PUBCHEM_OPENEYE_ISO_SMILES>
C/C=C/C(=O)OCC1C(C(C(C(O1)OC2C(C(C(OC2OC3CCC4(C(C3(C)C)CCC5(C4CC(C6C5(CCC6C(C)(CCC=C(C)C)OC7C(C(C(C(O7)CO)O)O)O)C)O)C)C)CO)O)O)O)O)O

> <PUBCHEM_CACTVS_TPSA>
304

> <PUBCHEM_MONOISOTOPIC_WEIGHT>
1014.576

> <PUBCHEM_TOTAL_CHARGE>
0

> <PUBCHEM_HEAVY_ATOM_COUNT>
71

> <PUBCHEM_ATOM_DEF_STEREO_COUNT>
0

> <PUBCHEM_ATOM_UDEF_STEREO_COUNT>
25

> <PUBCHEM_BOND_DEF_STEREO_COUNT>
1

> <PUBCHEM_BOND_UDEF_STEREO_COUNT>
0

> <PUBCHEM_ISOTOPIC_ATOM_COUNT>
0

> <PUBCHEM_COMPONENT_COUNT>
1

> <PUBCHEM_CACTVS_TAUTO_COUNT>
1

> <PUBCHEM_COORDINATE_TYPE>
1
5
255

> <PUBCHEM_BONDANNOTATIONS>
29  1  3
55  10  3
56  11  3
63  15  3
64  16  3
66  17  3
38  2  3
46  2  3
20  35  3
21  36  3
22  28  3
23  37  3
24  29  3
25  31  3
27  33  3
47  3  3
39  44  3
53  58  3
54  59  3
48  6  3
60  6  3
65  67  3
49  7  3
51  8  3
52  9  3

$$$$
