11331683
  -OEChem-12071809222D

123128  0     1  0  0  0  0  0999 V2000
   11.5590   -0.7290    0.0000 O   0  0  0  0  0  0  0  0  0  0  0  0
    9.4651   -2.1558    0.0000 O   0  0  0  0  0  0  0  0  0  0  0  0
   14.4479    5.0045    0.0000 O   0  0  0  0  0  0  0  0  0  0  0  0
    7.7331   -2.1558    0.0000 O   0  0  0  0  0  0  0  0  0  0  0  0
    9.4651   -4.1558    0.0000 O   0  0  0  0  0  0  0  0  0  0  0  0
    7.7331   -5.1558    0.0000 O   0  0  0  0  0  0  0  0  0  0  0  0
    6.0010   -4.1558    0.0000 O   0  0  0  0  0  0  0  0  0  0  0  0
    6.0010   -1.1558    0.0000 O   0  0  0  0  0  0  0  0  0  0  0  0
    4.2690   -1.1558    0.0000 O   0  0  0  0  0  0  0  0  0  0  0  0
    6.0010    0.8442    0.0000 O   0  0  0  0  0  0  0  0  0  0  0  0
    4.2690    1.8442    0.0000 O   0  0  0  0  0  0  0  0  0  0  0  0
    2.5369    0.8442    0.0000 O   0  0  0  0  0  0  0  0  0  0  0  0
   10.6271    2.1226    0.0000 C   0  0  1  0  0  0  0  0  0  0  0  0
    9.9592    1.3783    0.0000 C   0  0  1  0  0  0  0  0  0  0  0  0
   11.6056    1.9164    0.0000 C   0  0  1  0  0  0  0  0  0  0  0  0
   12.3131    2.6808    0.0000 C   0  0  2  0  0  0  0  0  0  0  0  0
   10.2699    0.4278    0.0000 C   0  0  1  0  0  0  0  0  0  0  0  0
   11.9971    3.6734    0.0000 C   0  0  1  0  0  0  0  0  0  0  0  0
   10.2882    3.1076    0.0000 C   0  0  0  0  0  0  0  0  0  0  0  0
    9.4651   -0.1558    0.0000 C   0  0  2  0  0  0  0  0  0  0  0  0
   11.9162    0.9659    0.0000 C   0  0  0  0  0  0  0  0  0  0  0  0
   11.2484    0.2216    0.0000 C   0  0  1  0  0  0  0  0  0  0  0  0
    8.9651    1.3740    0.0000 C   0  0  0  0  0  0  0  0  0  0  0  0
   10.9779    3.8882    0.0000 C   0  0  0  0  0  0  0  0  0  0  0  0
   12.7155    4.4865    0.0000 C   0  0  0  0  0  0  0  0  0  0  0  0
    8.6604    0.4278    0.0000 C   0  0  0  0  0  0  0  0  0  0  0  0
   13.3693    2.4326    0.0000 C   0  0  0  0  0  0  0  0  0  0  0  0
    9.7781    2.6510    0.0000 C   0  0  0  0  0  0  0  0  0  0  0  0
    9.3422    2.1652    0.0000 C   0  0  0  0  0  0  0  0  0  0  0  0
   12.6164    1.7280    0.0000 C   0  0  0  0  0  0  0  0  0  0  0  0
    9.4651   -1.1558    0.0000 C   0  0  2  0  0  0  0  0  0  0  0  0
   13.7772    4.2628    0.0000 C   0  0  2  0  0  0  0  0  0  0  0  0
   14.1063    3.2289    0.0000 C   0  0  0  0  0  0  0  0  0  0  0  0
   12.9179    5.4658    0.0000 C   0  0  0  0  0  0  0  0  0  0  0  0
   11.9686    5.1515    0.0000 C   0  0  0  0  0  0  0  0  0  0  0  0
   10.4651   -1.1558    0.0000 C   0  0  0  0  0  0  0  0  0  0  0  0
    8.4651   -1.1558    0.0000 C   0  0  0  0  0  0  0  0  0  0  0  0
   10.9651   -2.0218    0.0000 C   0  0  0  0  0  0  0  0  0  0  0  0
    8.5991   -2.6558    0.0000 C   0  0  2  0  0  0  0  0  0  0  0  0
    8.5991   -3.6558    0.0000 C   0  0  1  0  0  0  0  0  0  0  0  0
   11.9651   -2.0218    0.0000 C   0  0  0  0  0  0  0  0  0  0  0  0
    7.7331   -4.1558    0.0000 C   0  0  2  0  0  0  0  0  0  0  0  0
    6.8671   -2.6558    0.0000 C   0  0  1  0  0  0  0  0  0  0  0  0
    6.8671   -3.6558    0.0000 C   0  0  1  0  0  0  0  0  0  0  0  0
   12.4651   -2.8879    0.0000 C   0  0  0  0  0  0  0  0  0  0  0  0
    6.0010   -2.1558    0.0000 C   0  0  0  0  0  0  0  0  0  0  0  0
   13.4651   -2.8879    0.0000 C   0  0  0  0  0  0  0  0  0  0  0  0
   11.9651   -3.7539    0.0000 C   0  0  0  0  0  0  0  0  0  0  0  0
    5.1350   -0.6558    0.0000 C   0  0  2  0  0  0  0  0  0  0  0  0
    5.1350    0.3442    0.0000 C   0  0  1  0  0  0  0  0  0  0  0  0
    4.2690    0.8442    0.0000 C   0  0  2  0  0  0  0  0  0  0  0  0
    3.4030   -0.6558    0.0000 C   0  0  0  0  0  0  0  0  0  0  0  0
    3.4030    0.3442    0.0000 C   0  0  1  0  0  0  0  0  0  0  0  0
   12.4359    1.7347    0.0000 H   0  0  0  0  0  0  0  0  0  0  0  0
   10.4470   -0.4036    0.0000 H   0  0  0  0  0  0  0  0  0  0  0  0
   11.7299    4.4803    0.0000 H   0  0  0  0  0  0  0  0  0  0  0  0
    9.9007    3.5915    0.0000 H   0  0  0  0  0  0  0  0  0  0  0  0
    9.7451    2.8086    0.0000 H   0  0  0  0  0  0  0  0  0  0  0  0
    8.7080   -0.5420    0.0000 H   0  0  0  0  0  0  0  0  0  0  0  0
   12.2988    0.4780    0.0000 H   0  0  0  0  0  0  0  0  0  0  0  0
   12.4631    1.2579    0.0000 H   0  0  0  0  0  0  0  0  0  0  0  0
   10.8343   -0.2399    0.0000 H   0  0  0  0  0  0  0  0  0  0  0  0
    9.0276    1.9908    0.0000 H   0  0  0  0  0  0  0  0  0  0  0  0
    8.3583    1.5010    0.0000 H   0  0  0  0  0  0  0  0  0  0  0  0
   11.2077    4.4641    0.0000 H   0  0  0  0  0  0  0  0  0  0  0  0
   10.4498    4.2131    0.0000 H   0  0  0  0  0  0  0  0  0  0  0  0
    8.0935    0.6788    0.0000 H   0  0  0  0  0  0  0  0  0  0  0  0
    8.3512   -0.1096    0.0000 H   0  0  0  0  0  0  0  0  0  0  0  0
   13.1263    1.8622    0.0000 H   0  0  0  0  0  0  0  0  0  0  0  0
   13.8897    2.0956    0.0000 H   0  0  0  0  0  0  0  0  0  0  0  0
   10.1057    3.1774    0.0000 H   0  0  0  0  0  0  0  0  0  0  0  0
    9.2517    2.9787    0.0000 H   0  0  0  0  0  0  0  0  0  0  0  0
    9.4504    2.1247    0.0000 H   0  0  0  0  0  0  0  0  0  0  0  0
    9.8301    2.5478    0.0000 H   0  0  0  0  0  0  0  0  0  0  0  0
    8.9596    2.6532    0.0000 H   0  0  0  0  0  0  0  0  0  0  0  0
    8.8543    1.7827    0.0000 H   0  0  0  0  0  0  0  0  0  0  0  0
   12.0256    1.5399    0.0000 H   0  0  0  0  0  0  0  0  0  0  0  0
   12.8045    1.1372    0.0000 H   0  0  0  0  0  0  0  0  0  0  0  0
   13.2072    1.9160    0.0000 H   0  0  0  0  0  0  0  0  0  0  0  0
   14.3831    4.1314    0.0000 H   0  0  0  0  0  0  0  0  0  0  0  0
   14.4825    2.7361    0.0000 H   0  0  0  0  0  0  0  0  0  0  0  0
   14.6562    3.5153    0.0000 H   0  0  0  0  0  0  0  0  0  0  0  0
   13.5251    5.3403    0.0000 H   0  0  0  0  0  0  0  0  0  0  0  0
   13.0434    6.0730    0.0000 H   0  0  0  0  0  0  0  0  0  0  0  0
   12.3108    5.5914    0.0000 H   0  0  0  0  0  0  0  0  0  0  0  0
   12.3809    5.6146    0.0000 H   0  0  0  0  0  0  0  0  0  0  0  0
   11.5056    5.5638    0.0000 H   0  0  0  0  0  0  0  0  0  0  0  0
   11.5563    4.6884    0.0000 H   0  0  0  0  0  0  0  0  0  0  0  0
   12.1657   -0.8568    0.0000 H   0  0  0  0  0  0  0  0  0  0  0  0
   11.0477   -0.9438    0.0000 H   0  0  0  0  0  0  0  0  0  0  0  0
   10.3575   -0.5452    0.0000 H   0  0  0  0  0  0  0  0  0  0  0  0
    8.4651   -0.5358    0.0000 H   0  0  0  0  0  0  0  0  0  0  0  0
    7.8451   -1.1558    0.0000 H   0  0  0  0  0  0  0  0  0  0  0  0
    8.4651   -1.7758    0.0000 H   0  0  0  0  0  0  0  0  0  0  0  0
   15.0540    4.8743    0.0000 H   0  0  0  0  0  0  0  0  0  0  0  0
   10.3825   -2.2339    0.0000 H   0  0  0  0  0  0  0  0  0  0  0  0
   11.0728   -2.6324    0.0000 H   0  0  0  0  0  0  0  0  0  0  0  0
    8.5991   -2.0358    0.0000 H   0  0  0  0  0  0  0  0  0  0  0  0
    8.5991   -4.2758    0.0000 H   0  0  0  0  0  0  0  0  0  0  0  0
   12.2751   -1.4849    0.0000 H   0  0  0  0  0  0  0  0  0  0  0  0
    7.1962   -4.4658    0.0000 H   0  0  0  0  0  0  0  0  0  0  0  0
    6.8671   -2.0358    0.0000 H   0  0  0  0  0  0  0  0  0  0  0  0
    6.3301   -3.3458    0.0000 H   0  0  0  0  0  0  0  0  0  0  0  0
    9.4651   -4.7758    0.0000 H   0  0  0  0  0  0  0  0  0  0  0  0
    5.3905   -2.0482    0.0000 H   0  0  0  0  0  0  0  0  0  0  0  0
    5.7890   -2.7384    0.0000 H   0  0  0  0  0  0  0  0  0  0  0  0
    7.1962   -5.4658    0.0000 H   0  0  0  0  0  0  0  0  0  0  0  0
   13.4651   -3.5079    0.0000 H   0  0  0  0  0  0  0  0  0  0  0  0
   14.0851   -2.8879    0.0000 H   0  0  0  0  0  0  0  0  0  0  0  0
   13.4651   -2.2679    0.0000 H   0  0  0  0  0  0  0  0  0  0  0  0
   11.4282   -3.4439    0.0000 H   0  0  0  0  0  0  0  0  0  0  0  0
   11.6551   -4.2908    0.0000 H   0  0  0  0  0  0  0  0  0  0  0  0
   12.5021   -4.0639    0.0000 H   0  0  0  0  0  0  0  0  0  0  0  0
    5.4641   -3.8458    0.0000 H   0  0  0  0  0  0  0  0  0  0  0  0
    5.6720   -0.3458    0.0000 H   0  0  0  0  0  0  0  0  0  0  0  0
    5.1350    0.9642    0.0000 H   0  0  0  0  0  0  0  0  0  0  0  0
    3.7320    1.1542    0.0000 H   0  0  0  0  0  0  0  0  0  0  0  0
    2.7924   -0.5482    0.0000 H   0  0  0  0  0  0  0  0  0  0  0  0
    3.1909   -1.2384    0.0000 H   0  0  0  0  0  0  0  0  0  0  0  0
    2.8660    0.0342    0.0000 H   0  0  0  0  0  0  0  0  0  0  0  0
    6.0010    1.4642    0.0000 H   0  0  0  0  0  0  0  0  0  0  0  0
    3.7320    2.1542    0.0000 H   0  0  0  0  0  0  0  0  0  0  0  0
    2.0000    0.5342    0.0000 H   0  0  0  0  0  0  0  0  0  0  0  0
 22  1  1  1  0  0  0
  1 89  1  0  0  0  0
 31  2  1  6  0  0  0
 39  2  1  1  0  0  0
 32  3  1  1  0  0  0
  3 95  1  0  0  0  0
  4 39  1  0  0  0  0
  4 43  1  0  0  0  0
 40  5  1  6  0  0  0
  5104  1  0  0  0  0
 42  6  1  1  0  0  0
  6107  1  0  0  0  0
 44  7  1  6  0  0  0
  7114  1  0  0  0  0
  8 46  1  0  0  0  0
 49  8  1  6  0  0  0
  9 49  1  0  0  0  0
  9 52  1  0  0  0  0
 50 10  1  1  0  0  0
 10121  1  0  0  0  0
 51 11  1  6  0  0  0
 11122  1  0  0  0  0
 53 12  1  1  0  0  0
 12123  1  0  0  0  0
 13 14  1  0  0  0  0
 13 15  1  0  0  0  0
 13 19  1  0  0  0  0
 13 28  1  1  0  0  0
 14 17  1  0  0  0  0
 14 23  1  0  0  0  0
 14 29  1  6  0  0  0
 15 16  1  0  0  0  0
 15 21  1  0  0  0  0
 15 54  1  6  0  0  0
 16 18  1  0  0  0  0
 16 27  1  0  0  0  0
 16 30  1  1  0  0  0
 17 20  1  0  0  0  0
 17 22  1  0  0  0  0
 17 55  1  1  0  0  0
 18 24  1  0  0  0  0
 18 25  1  0  0  0  0
 18 56  1  6  0  0  0
 19 24  1  0  0  0  0
 19 57  1  0  0  0  0
 19 58  1  0  0  0  0
 20 26  1  0  0  0  0
 20 31  1  0  0  0  0
 20 59  1  6  0  0  0
 21 22  1  0  0  0  0
 21 60  1  0  0  0  0
 21 61  1  0  0  0  0
 22 62  1  0  0  0  0
 23 26  1  0  0  0  0
 23 63  1  0  0  0  0
 23 64  1  0  0  0  0
 24 65  1  0  0  0  0
 24 66  1  0  0  0  0
 25 32  1  0  0  0  0
 25 34  1  0  0  0  0
 25 35  1  0  0  0  0
 26 67  1  0  0  0  0
 26 68  1  0  0  0  0
 27 33  1  0  0  0  0
 27 69  1  0  0  0  0
 27 70  1  0  0  0  0
 28 71  1  0  0  0  0
 28 72  1  0  0  0  0
 28 73  1  0  0  0  0
 29 74  1  0  0  0  0
 29 75  1  0  0  0  0
 29 76  1  0  0  0  0
 30 77  1  0  0  0  0
 30 78  1  0  0  0  0
 30 79  1  0  0  0  0
 31 36  1  0  0  0  0
 31 37  1  0  0  0  0
 32 33  1  0  0  0  0
 32 80  1  0  0  0  0
 33 81  1  0  0  0  0
 33 82  1  0  0  0  0
 34 83  1  0  0  0  0
 34 84  1  0  0  0  0
 34 85  1  0  0  0  0
 35 86  1  0  0  0  0
 35 87  1  0  0  0  0
 35 88  1  0  0  0  0
 36 38  1  0  0  0  0
 36 90  1  0  0  0  0
 36 91  1  0  0  0  0
 37 92  1  0  0  0  0
 37 93  1  0  0  0  0
 37 94  1  0  0  0  0
 38 41  1  0  0  0  0
 38 96  1  0  0  0  0
 38 97  1  0  0  0  0
 39 40  1  0  0  0  0
 39 98  1  0  0  0  0
 40 42  1  0  0  0  0
 40 99  1  0  0  0  0
 41 45  2  0  0  0  0
 41100  1  0  0  0  0
 42 44  1  0  0  0  0
 42101  1  0  0  0  0
 43 44  1  0  0  0  0
 43 46  1  1  0  0  0
 43102  1  0  0  0  0
 44103  1  0  0  0  0
 45 47  1  0  0  0  0
 45 48  1  0  0  0  0
 46105  1  0  0  0  0
 46106  1  0  0  0  0
 47108  1  0  0  0  0
 47109  1  0  0  0  0
 47110  1  0  0  0  0
 48111  1  0  0  0  0
 48112  1  0  0  0  0
 48113  1  0  0  0  0
 49 50  1  0  0  0  0
 49115  1  0  0  0  0
 50 51  1  0  0  0  0
 50116  1  0  0  0  0
 51 53  1  0  0  0  0
 51117  1  0  0  0  0
 52 53  1  0  0  0  0
 52118  1  0  0  0  0
 52119  1  0  0  0  0
 53120  1  0  0  0  0
M  END
> <PUBCHEM_COMPOUND_CID>
11331683

> <PUBCHEM_COMPOUND_CANONICALIZED>
1

> <PUBCHEM_CACTVS_COMPLEXITY>
1320

> <PUBCHEM_CACTVS_HBOND_ACCEPTOR>
12

> <PUBCHEM_CACTVS_HBOND_DONOR>
8

> <PUBCHEM_CACTVS_ROTATABLE_BOND>
9

> <PUBCHEM_CACTVS_SUBSKEYS>
AAADcfB8PAAAAAAAAAAAAAAAAAAAAYAAAAA0aMECAAAAAGDAAAAAGgAACAAAD1SwgAMCCAAABgCAAiBCAAAAAAAgAAAACAAAAAgREAIAAQAiQAAFgAAPAAPA4PwPgAAAAAAAAADAAAYAADAAAQAACAAAAA==

> <PUBCHEM_IUPAC_OPENEYE_NAME>
(2S,3R,4S,5S,6R)-2-[(1S)-1-[(3S,5R,8R,9R,10R,12R,13R,14R,17S)-3,12-dihydroxy-4,4,8,10,14-pentamethyl-2,3,5,6,7,9,11,12,13,15,16,17-dodecahydro-1H-cyclopenta[a]phenanthren-17-yl]-1,5-dimethyl-hex-4-enoxy]-6-[[(2S,3R,4S,5R)-3,4,5-trihydroxytetrahydropyran-2-yl]oxymethyl]tetrahydropyran-3,4,5-triol

> <PUBCHEM_IUPAC_CAS_NAME>
(2S,3R,4S,5S,6R)-2-[(2S)-2-[(3S,5R,8R,9R,10R,12R,13R,14R,17S)-3,12-dihydroxy-4,4,8,10,14-pentamethyl-2,3,5,6,7,9,11,12,13,15,16,17-dodecahydro-1H-cyclopenta[a]phenanthren-17-yl]-6-methylhept-5-en-2-yl]oxy-6-[[(2S,3R,4S,5R)-3,4,5-trihydroxy-2-oxanyl]oxymethyl]oxane-3,4,5-triol

> <PUBCHEM_IUPAC_NAME>
(2S,3R,4S,5S,6R)-2-[(2S)-2-[(3S,5R,8R,9R,10R,12R,13R,14R,17S)-3,12-dihydroxy-4,4,8,10,14-pentamethyl-2,3,5,6,7,9,11,12,13,15,16,17-dodecahydro-1H-cyclopenta[a]phenanthren-17-yl]-6-methylhept-5-en-2-yl]oxy-6-[[(2S,3R,4S,5R)-3,4,5-trihydroxyoxan-2-yl]oxymethyl]oxane-3,4,5-triol

> <PUBCHEM_IUPAC_SYSTEMATIC_NAME>
(2S,3R,4S,5S,6R)-2-[(2S)-6-methyl-2-[(3S,5R,8R,9R,10R,12R,13R,14R,17S)-4,4,8,10,14-pentamethyl-3,12-bis(oxidanyl)-2,3,5,6,7,9,11,12,13,15,16,17-dodecahydro-1H-cyclopenta[a]phenanthren-17-yl]hept-5-en-2-yl]oxy-6-[[(2S,3R,4S,5R)-3,4,5-tris(oxidanyl)oxan-2-yl]oxymethyl]oxane-3,4,5-triol

> <PUBCHEM_IUPAC_TRADITIONAL_NAME>
(2S,3R,4S,5S,6R)-2-[(1S)-1-[(3S,5R,8R,9R,10R,12R,13R,14R,17S)-3,12-dihydroxy-4,4,8,10,14-pentamethyl-2,3,5,6,7,9,11,12,13,15,16,17-dodecahydro-1H-cyclopenta[a]phenanthren-17-yl]-1,5-dimethyl-hex-4-enoxy]-6-[[(2S,3R,4S,5R)-3,4,5-trihydroxytetrahydropyran-2-yl]oxymethyl]tetrahydropyran-3,4,5-triol

> <PUBCHEM_IUPAC_INCHI>
InChI=1S/C41H70O12/c1-21(2)10-9-14-41(8,53-36-34(49)32(47)31(46)25(52-36)20-51-35-33(48)30(45)24(43)19-50-35)22-11-16-40(7)29(22)23(42)18-27-38(5)15-13-28(44)37(3,4)26(38)12-17-39(27,40)6/h10,22-36,42-49H,9,11-20H2,1-8H3/t22-,23+,24+,25+,26-,27+,28-,29-,30-,31+,32-,33+,34+,35-,36-,38-,39+,40+,41-/m0/s1

> <PUBCHEM_IUPAC_INCHIKEY>
YNBYFOIDLBTOMW-IPTBNLQOSA-N

> <PUBCHEM_XLOGP3_AA>
3.5

> <PUBCHEM_EXACT_MASS>
754.487

> <PUBCHEM_MOLECULAR_FORMULA>
C41H70O12

> <PUBCHEM_MOLECULAR_WEIGHT>
754.999

> <PUBCHEM_OPENEYE_CAN_SMILES>
CC(=CCCC(C)(C1CCC2(C1C(CC3C2(CCC4C3(CCC(C4(C)C)O)C)C)O)C)OC5C(C(C(C(O5)COC6C(C(C(CO6)O)O)O)O)O)O)C

> <PUBCHEM_OPENEYE_ISO_SMILES>
CC(=CCC[C@@](C)([C@H]1CC[C@@]2([C@@H]1[C@@H](C[C@H]3[C@]2(CC[C@@H]4[C@@]3(CC[C@@H](C4(C)C)O)C)C)O)C)O[C@H]5[C@@H]([C@H]([C@@H]([C@H](O5)CO[C@H]6[C@@H]([C@H]([C@@H](CO6)O)O)O)O)O)O)C

> <PUBCHEM_CACTVS_TPSA>
199

> <PUBCHEM_MONOISOTOPIC_WEIGHT>
754.487

> <PUBCHEM_TOTAL_CHARGE>
0

> <PUBCHEM_HEAVY_ATOM_COUNT>
53

> <PUBCHEM_ATOM_DEF_STEREO_COUNT>
19

> <PUBCHEM_ATOM_UDEF_STEREO_COUNT>
0

> <PUBCHEM_BOND_DEF_STEREO_COUNT>
0

> <PUBCHEM_BOND_UDEF_STEREO_COUNT>
0

> <PUBCHEM_ISOTOPIC_ATOM_COUNT>
0

> <PUBCHEM_COMPONENT_COUNT>
1

> <PUBCHEM_CACTVS_TAUTO_COUNT>
1

> <PUBCHEM_COORDINATE_TYPE>
1
5
255

> <PUBCHEM_BONDANNOTATIONS>
22  1  5
50  10  5
51  11  6
53  12  5
13  28  5
14  29  6
15  54  6
16  30  5
17  55  5
18  56  6
31  2  6
39  2  5
20  59  6
32  3  5
43  46  5
40  5  6
42  6  5
44  7  6
49  8  6

$$$$
