5322064
  -OEChem-12071809342D

 30 32  0     0  0  0  0  0  0999 V2000
    6.0682   -0.6154    0.0000 O   0  0  0  0  0  0  0  0  0  0  0  0
    4.3198    2.4192    0.0000 O   0  0  0  0  0  0  0  0  0  0  0  0
    6.0682    2.3846    0.0000 O   0  0  0  0  0  0  0  0  0  0  0  0
    2.5381   -0.6395    0.0000 O   0  0  0  0  0  0  0  0  0  0  0  0
    6.9343   -2.1154    0.0000 O   0  0  0  0  0  0  0  0  0  0  0  0
    5.2022    0.8846    0.0000 C   0  0  0  0  0  0  0  0  0  0  0  0
    5.2022   -0.1154    0.0000 C   0  0  0  0  0  0  0  0  0  0  0  0
    6.9343   -0.1154    0.0000 C   0  0  0  0  0  0  0  0  0  0  0  0
    7.8003   -0.6154    0.0000 C   0  0  0  0  0  0  0  0  0  0  0  0
    6.0682    1.3846    0.0000 C   0  0  0  0  0  0  0  0  0  0  0  0
    6.9343    0.8846    0.0000 C   0  0  0  0  0  0  0  0  0  0  0  0
    4.3083    1.4193    0.0000 C   0  0  0  0  0  0  0  0  0  0  0  0
    4.3083   -0.6501    0.0000 C   0  0  0  0  0  0  0  0  0  0  0  0
    3.4022   -0.1362    0.0000 C   0  0  0  0  0  0  0  0  0  0  0  0
    3.4022    0.9054    0.0000 C   0  0  0  0  0  0  0  0  0  0  0  0
    7.8003   -1.6154    0.0000 C   0  0  0  0  0  0  0  0  0  0  0  0
    8.6663   -0.1154    0.0000 C   0  0  0  0  0  0  0  0  0  0  0  0
    8.6663   -2.1154    0.0000 C   0  0  0  0  0  0  0  0  0  0  0  0
    9.5323   -0.6154    0.0000 C   0  0  0  0  0  0  0  0  0  0  0  0
    9.5323   -1.6154    0.0000 C   0  0  0  0  0  0  0  0  0  0  0  0
    7.4712    1.1946    0.0000 H   0  0  0  0  0  0  0  0  0  0  0  0
    4.3154   -1.2700    0.0000 H   0  0  0  0  0  0  0  0  0  0  0  0
    2.8665    1.2175    0.0000 H   0  0  0  0  0  0  0  0  0  0  0  0
    8.6663    0.5046    0.0000 H   0  0  0  0  0  0  0  0  0  0  0  0
    8.6663   -2.7354    0.0000 H   0  0  0  0  0  0  0  0  0  0  0  0
   10.0693   -0.3054    0.0000 H   0  0  0  0  0  0  0  0  0  0  0  0
   10.0693   -1.9254    0.0000 H   0  0  0  0  0  0  0  0  0  0  0  0
    3.7865    2.7354    0.0000 H   0  0  0  0  0  0  0  0  0  0  0  0
    2.0000   -0.3316    0.0000 H   0  0  0  0  0  0  0  0  0  0  0  0
    6.9343   -2.7354    0.0000 H   0  0  0  0  0  0  0  0  0  0  0  0
  1  7  1  0  0  0  0
  1  8  1  0  0  0  0
  2 12  1  0  0  0  0
  2 28  1  0  0  0  0
  3 10  2  0  0  0  0
  4 14  1  0  0  0  0
  4 29  1  0  0  0  0
  5 16  1  0  0  0  0
  5 30  1  0  0  0  0
  6  7  1  0  0  0  0
  6 10  1  0  0  0  0
  6 12  2  0  0  0  0
  7 13  2  0  0  0  0
  8  9  1  0  0  0  0
  8 11  2  0  0  0  0
  9 16  1  0  0  0  0
  9 17  2  0  0  0  0
 10 11  1  0  0  0  0
 11 21  1  0  0  0  0
 12 15  1  0  0  0  0
 13 14  1  0  0  0  0
 13 22  1  0  0  0  0
 14 15  2  0  0  0  0
 15 23  1  0  0  0  0
 16 18  2  0  0  0  0
 17 19  1  0  0  0  0
 17 24  1  0  0  0  0
 18 20  1  0  0  0  0
 18 25  1  0  0  0  0
 19 20  2  0  0  0  0
 19 26  1  0  0  0  0
 20 27  1  0  0  0  0
M  END
> <PUBCHEM_COMPOUND_CID>
5322064

> <PUBCHEM_COMPOUND_CANONICALIZED>
1

> <PUBCHEM_CACTVS_COMPLEXITY>
419

> <PUBCHEM_CACTVS_HBOND_ACCEPTOR>
5

> <PUBCHEM_CACTVS_HBOND_DONOR>
3

> <PUBCHEM_CACTVS_ROTATABLE_BOND>
1

> <PUBCHEM_CACTVS_SUBSKEYS>
AAADccBwOAAAAAAAAAAAAAAAAAAAAAAAAAAwYIAAAAAAAACBQAAAGgAACAAADASAmAAwBoAABgCIAqBSAAACCAAkIAAIiAEGCMgMJzaGNRqCeWCl4BUIuQeI7KzOIAAACAAIAABAAAAQABAAAAAAAAAAAA==

> <PUBCHEM_IUPAC_OPENEYE_NAME>
5,7-dihydroxy-2-(2-hydroxyphenyl)chromen-4-one

> <PUBCHEM_IUPAC_CAS_NAME>
5,7-dihydroxy-2-(2-hydroxyphenyl)-1-benzopyran-4-one

> <PUBCHEM_IUPAC_NAME>
5,7-dihydroxy-2-(2-hydroxyphenyl)chromen-4-one

> <PUBCHEM_IUPAC_SYSTEMATIC_NAME>
2-(2-hydroxyphenyl)-5,7-bis(oxidanyl)chromen-4-one

> <PUBCHEM_IUPAC_TRADITIONAL_NAME>
5,7-dihydroxy-2-(2-hydroxyphenyl)chromone

> <PUBCHEM_IUPAC_INCHI>
InChI=1S/C15H10O5/c16-8-5-11(18)15-12(19)7-13(20-14(15)6-8)9-3-1-2-4-10(9)17/h1-7,16-18H

> <PUBCHEM_IUPAC_INCHIKEY>
OFYPDAKTVZXXPC-UHFFFAOYSA-N

> <PUBCHEM_XLOGP3>
1.7

> <PUBCHEM_EXACT_MASS>
270.053

> <PUBCHEM_MOLECULAR_FORMULA>
C15H10O5

> <PUBCHEM_MOLECULAR_WEIGHT>
270.24

> <PUBCHEM_OPENEYE_CAN_SMILES>
C1=CC=C(C(=C1)C2=CC(=O)C3=C(C=C(C=C3O2)O)O)O

> <PUBCHEM_OPENEYE_ISO_SMILES>
C1=CC=C(C(=C1)C2=CC(=O)C3=C(C=C(C=C3O2)O)O)O

> <PUBCHEM_CACTVS_TPSA>
87

> <PUBCHEM_MONOISOTOPIC_WEIGHT>
270.053

> <PUBCHEM_TOTAL_CHARGE>
0

> <PUBCHEM_HEAVY_ATOM_COUNT>
20

> <PUBCHEM_ATOM_DEF_STEREO_COUNT>
0

> <PUBCHEM_ATOM_UDEF_STEREO_COUNT>
0

> <PUBCHEM_BOND_DEF_STEREO_COUNT>
0

> <PUBCHEM_BOND_UDEF_STEREO_COUNT>
0

> <PUBCHEM_ISOTOPIC_ATOM_COUNT>
0

> <PUBCHEM_COMPONENT_COUNT>
1

> <PUBCHEM_CACTVS_TAUTO_COUNT>
69

> <PUBCHEM_COORDINATE_TYPE>
1
5
255

> <PUBCHEM_BONDANNOTATIONS>
1  7  8
1  8  8
10  11  8
12  15  8
13  14  8
14  15  8
16  18  8
17  19  8
18  20  8
19  20  8
6  10  8
6  12  8
6  7  8
7  13  8
8  11  8
9  16  8
9  17  8

$$$$
