101995835
  -OEChem-12071809182D

 54 57  0     1  0  0  0  0  0999 V2000
    6.5492   -1.6578    0.0000 O   0  0  0  0  0  0  0  0  0  0  0  0
    7.3193   -0.4374    0.0000 O   0  0  0  0  0  0  0  0  0  0  0  0
    5.6538   -0.1308    0.0000 C   0  0  2  0  0  0  0  0  0  0  0  0
    4.7853    0.3648    0.0000 C   0  0  2  0  0  0  0  0  0  0  0  0
    3.8778   -0.1465    0.0000 C   0  0  1  0  0  0  0  0  0  0  0  0
    3.8750   -1.1882    0.0000 C   0  0  2  0  0  0  0  0  0  0  0  0
    5.6293    1.0505    0.0000 C   0  0  0  0  0  0  0  0  0  0  0  0
    5.6751   -1.1722    0.0000 C   0  0  1  0  0  0  0  0  0  0  0  0
    6.3054    2.0196    0.0000 C   0  0  2  0  0  0  0  0  0  0  0  0
    4.7797   -1.7045    0.0000 C   0  0  0  0  0  0  0  0  0  0  0  0
    4.6313    1.3529    0.0000 C   0  0  0  0  0  0  0  0  0  0  0  0
    2.9423   -1.7425    0.0000 C   0  0  0  0  0  0  0  0  0  0  0  0
    2.9482    0.4129    0.0000 C   0  0  0  0  0  0  0  0  0  0  0  0
    6.8728    1.1962    0.0000 C   0  0  2  0  0  0  0  0  0  0  0  0
    6.5828    0.2391    0.0000 C   0  0  0  0  0  0  0  0  0  0  0  0
    5.3078    2.0894    0.0000 C   0  0  0  0  0  0  0  0  0  0  0  0
    3.5384    0.7941    0.0000 C   0  0  0  0  0  0  0  0  0  0  0  0
    2.0000   -1.2047    0.0000 C   0  0  0  0  0  0  0  0  0  0  0  0
    2.0029   -0.1197    0.0000 C   0  0  0  0  0  0  0  0  0  0  0  0
    2.4500   -2.6130    0.0000 C   0  0  0  0  0  0  0  0  0  0  0  0
    3.4500   -2.6041    0.0000 C   0  0  0  0  0  0  0  0  0  0  0  0
    7.8609    1.3502    0.0000 C   0  0  0  0  0  0  0  0  0  0  0  0
    4.0471    0.7862    0.0000 H   0  0  0  0  0  0  0  0  0  0  0  0
    3.8825   -2.0381    0.0000 H   0  0  0  0  0  0  0  0  0  0  0  0
    5.2551    1.5448    0.0000 H   0  0  0  0  0  0  0  0  0  0  0  0
    5.0436    0.8471    0.0000 H   0  0  0  0  0  0  0  0  0  0  0  0
    5.6841   -1.7922    0.0000 H   0  0  0  0  0  0  0  0  0  0  0  0
    6.5519    2.8331    0.0000 H   0  0  0  0  0  0  0  0  0  0  0  0
    4.3847   -2.1824    0.0000 H   0  0  0  0  0  0  0  0  0  0  0  0
    5.1830   -2.1754    0.0000 H   0  0  0  0  0  0  0  0  0  0  0  0
    4.2795    1.8634    0.0000 H   0  0  0  0  0  0  0  0  0  0  0  0
    4.0553    1.1235    0.0000 H   0  0  0  0  0  0  0  0  0  0  0  0
    3.3541    0.8816    0.0000 H   0  0  0  0  0  0  0  0  0  0  0  0
    2.5559    0.8930    0.0000 H   0  0  0  0  0  0  0  0  0  0  0  0
    7.1179    1.7657    0.0000 H   0  0  0  0  0  0  0  0  0  0  0  0
    5.4876    2.6827    0.0000 H   0  0  0  0  0  0  0  0  0  0  0  0
    4.7694    2.3967    0.0000 H   0  0  0  0  0  0  0  0  0  0  0  0
    4.1216    1.0046    0.0000 H   0  0  0  0  0  0  0  0  0  0  0  0
    3.3279    1.3773    0.0000 H   0  0  0  0  0  0  0  0  0  0  0  0
    2.9552    0.5836    0.0000 H   0  0  0  0  0  0  0  0  0  0  0  0
    1.3894   -1.0970    0.0000 H   0  0  0  0  0  0  0  0  0  0  0  0
    1.7894   -1.7879    0.0000 H   0  0  0  0  0  0  0  0  0  0  0  0
    1.7955    0.4645    0.0000 H   0  0  0  0  0  0  0  0  0  0  0  0
    1.3918   -0.2242    0.0000 H   0  0  0  0  0  0  0  0  0  0  0  0
    1.9104   -2.3077    0.0000 H   0  0  0  0  0  0  0  0  0  0  0  0
    2.1448   -3.1526    0.0000 H   0  0  0  0  0  0  0  0  0  0  0  0
    2.9897   -2.9182    0.0000 H   0  0  0  0  0  0  0  0  0  0  0  0
    2.9158   -2.9188    0.0000 H   0  0  0  0  0  0  0  0  0  0  0  0
    3.7647   -3.1383    0.0000 H   0  0  0  0  0  0  0  0  0  0  0  0
    3.9841   -2.2894    0.0000 H   0  0  0  0  0  0  0  0  0  0  0  0
    7.9564    0.7375    0.0000 H   0  0  0  0  0  0  0  0  0  0  0  0
    8.4735    1.4456    0.0000 H   0  0  0  0  0  0  0  0  0  0  0  0
    7.7654    1.9628    0.0000 H   0  0  0  0  0  0  0  0  0  0  0  0
    6.5595   -2.2778    0.0000 H   0  0  0  0  0  0  0  0  0  0  0  0
  8  1  1  6  0  0  0
  1 54  1  0  0  0  0
  2 15  2  0  0  0  0
  3  4  1  0  0  0  0
  3  7  1  6  0  0  0
  3  8  1  0  0  0  0
  3 15  1  0  0  0  0
  4  5  1  0  0  0  0
  4 11  1  0  0  0  0
  4 23  1  1  0  0  0
  5  6  1  0  0  0  0
  5 13  1  0  0  0  0
  5 17  1  6  0  0  0
  6 10  1  0  0  0  0
  6 12  1  0  0  0  0
  6 24  1  1  0  0  0
  7  9  1  0  0  0  0
  7 25  1  0  0  0  0
  7 26  1  0  0  0  0
  8 10  1  0  0  0  0
  8 27  1  0  0  0  0
  9 14  1  0  0  0  0
  9 16  1  0  0  0  0
  9 28  1  6  0  0  0
 10 29  1  0  0  0  0
 10 30  1  0  0  0  0
 11 16  1  0  0  0  0
 11 31  1  0  0  0  0
 11 32  1  0  0  0  0
 12 18  1  0  0  0  0
 12 20  1  0  0  0  0
 12 21  1  0  0  0  0
 13 19  1  0  0  0  0
 13 33  1  0  0  0  0
 13 34  1  0  0  0  0
 14 15  1  0  0  0  0
 14 22  1  1  0  0  0
 14 35  1  0  0  0  0
 16 36  1  0  0  0  0
 16 37  1  0  0  0  0
 17 38  1  0  0  0  0
 17 39  1  0  0  0  0
 17 40  1  0  0  0  0
 18 19  1  0  0  0  0
 18 41  1  0  0  0  0
 18 42  1  0  0  0  0
 19 43  1  0  0  0  0
 19 44  1  0  0  0  0
 20 45  1  0  0  0  0
 20 46  1  0  0  0  0
 20 47  1  0  0  0  0
 21 48  1  0  0  0  0
 21 49  1  0  0  0  0
 21 50  1  0  0  0  0
 22 51  1  0  0  0  0
 22 52  1  0  0  0  0
 22 53  1  0  0  0  0
M  END
> <PUBCHEM_COMPOUND_CID>
101995835

> <PUBCHEM_COMPOUND_CANONICALIZED>
1

> <PUBCHEM_CACTVS_COMPLEXITY>
510

> <PUBCHEM_CACTVS_HBOND_ACCEPTOR>
2

> <PUBCHEM_CACTVS_HBOND_DONOR>
1

> <PUBCHEM_CACTVS_ROTATABLE_BOND>
0

> <PUBCHEM_CACTVS_SUBSKEYS>
AAADcfB4MAAAAAAAAAAAAAAAAAAAAYAAAAAwYMAABgAAAADAAAAAGgAACAAADxSggAICAAAAAgAIAIAQAAAAAAAAAAAAAAEAAAAAEBYAAAAAQAAEIAAAAAGIyPCPgAAAAAAAAADAAAYAADAAAQAACAAAAA==

> <PUBCHEM_IUPAC_INCHI>
InChI=1S/C20H32O2/c1-12-13-6-7-14-19(4)9-5-8-18(2,3)15(19)10-16(21)20(14,11-13)17(12)22/h12-16,21H,5-11H2,1-4H3/t12-,13-,14+,15-,16-,19+,20-/m1/s1

> <PUBCHEM_IUPAC_INCHIKEY>
AMBDOPFVINMJPQ-HBXSUUKJSA-N

> <PUBCHEM_XLOGP3_AA>
4.8

> <PUBCHEM_EXACT_MASS>
304.24

> <PUBCHEM_MOLECULAR_FORMULA>
C20H32O2

> <PUBCHEM_MOLECULAR_WEIGHT>
304.474

> <PUBCHEM_OPENEYE_CAN_SMILES>
CC1C2CCC3C4(CCCC(C4CC(C3(C2)C1=O)O)(C)C)C

> <PUBCHEM_OPENEYE_ISO_SMILES>
C[C@@H]1[C@@H]2CC[C@H]3[C@@]4(CCCC([C@H]4C[C@H]([C@]3(C2)C1=O)O)(C)C)C

> <PUBCHEM_CACTVS_TPSA>
37.3

> <PUBCHEM_MONOISOTOPIC_WEIGHT>
304.24

> <PUBCHEM_TOTAL_CHARGE>
0

> <PUBCHEM_HEAVY_ATOM_COUNT>
22

> <PUBCHEM_ATOM_DEF_STEREO_COUNT>
7

> <PUBCHEM_ATOM_UDEF_STEREO_COUNT>
0

> <PUBCHEM_BOND_DEF_STEREO_COUNT>
0

> <PUBCHEM_BOND_UDEF_STEREO_COUNT>
0

> <PUBCHEM_ISOTOPIC_ATOM_COUNT>
0

> <PUBCHEM_COMPONENT_COUNT>
1

> <PUBCHEM_CACTVS_TAUTO_COUNT>
2

> <PUBCHEM_COORDINATE_TYPE>
1
5
255

> <PUBCHEM_BONDANNOTATIONS>
8  1  6
14  22  5
3  7  6
4  23  5
5  17  6
6  24  5
9  28  6

$$$$
