11438306
  -OEChem-12071809242D

 41 43  0     1  0  0  0  0  0999 V2000
    2.8660    1.6550    0.0000 O   0  0  0  0  0  0  0  0  0  0  0  0
    6.3301   -0.3450    0.0000 O   0  0  0  0  0  0  0  0  0  0  0  0
    2.8660   -4.3450    0.0000 O   0  0  0  0  0  0  0  0  0  0  0  0
    4.5981   -0.3450    0.0000 N   0  0  0  0  0  0  0  0  0  0  0  0
    4.5981    1.6550    0.0000 N   0  0  0  0  0  0  0  0  0  0  0  0
    3.7320    0.1550    0.0000 C   0  0  1  0  0  0  0  0  0  0  0  0
    5.4641    1.1550    0.0000 C   0  0  1  0  0  0  0  0  0  0  0  0
    2.8660   -0.3450    0.0000 C   0  0  0  0  0  0  0  0  0  0  0  0
    6.3301    1.6550    0.0000 C   0  0  0  0  0  0  0  0  0  0  0  0
    3.7320    1.1550    0.0000 C   0  0  0  0  0  0  0  0  0  0  0  0
    5.4641    0.1550    0.0000 C   0  0  0  0  0  0  0  0  0  0  0  0
    2.8660   -1.3450    0.0000 C   0  0  0  0  0  0  0  0  0  0  0  0
    6.3301    2.6550    0.0000 C   0  0  0  0  0  0  0  0  0  0  0  0
    2.0000   -1.8450    0.0000 C   0  0  0  0  0  0  0  0  0  0  0  0
    3.7320   -1.8450    0.0000 C   0  0  0  0  0  0  0  0  0  0  0  0
    7.1962    3.1550    0.0000 C   0  0  0  0  0  0  0  0  0  0  0  0
    5.4641    3.1550    0.0000 C   0  0  0  0  0  0  0  0  0  0  0  0
    2.0000   -2.8450    0.0000 C   0  0  0  0  0  0  0  0  0  0  0  0
    3.7320   -2.8450    0.0000 C   0  0  0  0  0  0  0  0  0  0  0  0
    7.1962    4.1550    0.0000 C   0  0  0  0  0  0  0  0  0  0  0  0
    5.4641    4.1550    0.0000 C   0  0  0  0  0  0  0  0  0  0  0  0
    2.8660   -3.3450    0.0000 C   0  0  0  0  0  0  0  0  0  0  0  0
    6.3301    4.6550    0.0000 C   0  0  0  0  0  0  0  0  0  0  0  0
    3.7320   -0.4650    0.0000 H   0  0  0  0  0  0  0  0  0  0  0  0
    5.4641    1.7750    0.0000 H   0  0  0  0  0  0  0  0  0  0  0  0
    2.6540    0.2376    0.0000 H   0  0  0  0  0  0  0  0  0  0  0  0
    2.2554   -0.4527    0.0000 H   0  0  0  0  0  0  0  0  0  0  0  0
    6.5422    1.0724    0.0000 H   0  0  0  0  0  0  0  0  0  0  0  0
    6.9407    1.7627    0.0000 H   0  0  0  0  0  0  0  0  0  0  0  0
    4.5981   -0.9650    0.0000 H   0  0  0  0  0  0  0  0  0  0  0  0
    4.5981    2.2750    0.0000 H   0  0  0  0  0  0  0  0  0  0  0  0
    1.4631   -1.5350    0.0000 H   0  0  0  0  0  0  0  0  0  0  0  0
    4.2690   -1.5350    0.0000 H   0  0  0  0  0  0  0  0  0  0  0  0
    7.7331    2.8450    0.0000 H   0  0  0  0  0  0  0  0  0  0  0  0
    4.9272    2.8450    0.0000 H   0  0  0  0  0  0  0  0  0  0  0  0
    1.4631   -3.1550    0.0000 H   0  0  0  0  0  0  0  0  0  0  0  0
    4.2690   -3.1550    0.0000 H   0  0  0  0  0  0  0  0  0  0  0  0
    7.7331    4.4650    0.0000 H   0  0  0  0  0  0  0  0  0  0  0  0
    4.9272    4.4650    0.0000 H   0  0  0  0  0  0  0  0  0  0  0  0
    6.3301    5.2750    0.0000 H   0  0  0  0  0  0  0  0  0  0  0  0
    2.3291   -4.6550    0.0000 H   0  0  0  0  0  0  0  0  0  0  0  0
  1 10  2  0  0  0  0
  2 11  2  0  0  0  0
  3 22  1  0  0  0  0
  3 41  1  0  0  0  0
  4  6  1  0  0  0  0
  4 11  1  0  0  0  0
  4 30  1  0  0  0  0
  5  7  1  0  0  0  0
  5 10  1  0  0  0  0
  5 31  1  0  0  0  0
  6  8  1  1  0  0  0
  6 10  1  0  0  0  0
  6 24  1  0  0  0  0
  7  9  1  1  0  0  0
  7 11  1  0  0  0  0
  7 25  1  0  0  0  0
  8 12  1  0  0  0  0
  8 26  1  0  0  0  0
  8 27  1  0  0  0  0
  9 13  1  0  0  0  0
  9 28  1  0  0  0  0
  9 29  1  0  0  0  0
 12 14  2  0  0  0  0
 12 15  1  0  0  0  0
 13 16  2  0  0  0  0
 13 17  1  0  0  0  0
 14 18  1  0  0  0  0
 14 32  1  0  0  0  0
 15 19  2  0  0  0  0
 15 33  1  0  0  0  0
 16 20  1  0  0  0  0
 16 34  1  0  0  0  0
 17 21  2  0  0  0  0
 17 35  1  0  0  0  0
 18 22  2  0  0  0  0
 18 36  1  0  0  0  0
 19 22  1  0  0  0  0
 19 37  1  0  0  0  0
 20 23  2  0  0  0  0
 20 38  1  0  0  0  0
 21 23  1  0  0  0  0
 21 39  1  0  0  0  0
 23 40  1  0  0  0  0
M  END
> <PUBCHEM_COMPOUND_CID>
11438306

> <PUBCHEM_COMPOUND_CANONICALIZED>
1

> <PUBCHEM_CACTVS_COMPLEXITY>
426

> <PUBCHEM_CACTVS_HBOND_ACCEPTOR>
3

> <PUBCHEM_CACTVS_HBOND_DONOR>
3

> <PUBCHEM_CACTVS_ROTATABLE_BOND>
4

> <PUBCHEM_CACTVS_SUBSKEYS>
AAADceB7MAAAAAAAAAAAAAAAAAAAAAAAAAA8YIAAAAAAAAABQAAAHgAQCAAADCzBmAQwBoLAAgCIAiFSEAACAAAgIAAIiIGOCIgIZjKCkTOUcAAk1hGImAeYyKCOIAAAAAAAAABAAAAAAAAAAAAAAAAAAA==

> <PUBCHEM_IUPAC_OPENEYE_NAME>
(3S,6S)-3-benzyl-6-[(4-hydroxyphenyl)methyl]piperazine-2,5-dione

> <PUBCHEM_IUPAC_CAS_NAME>
(3S,6S)-3-[(4-hydroxyphenyl)methyl]-6-(phenylmethyl)piperazine-2,5-dione

> <PUBCHEM_IUPAC_NAME>
(3S,6S)-3-benzyl-6-[(4-hydroxyphenyl)methyl]piperazine-2,5-dione

> <PUBCHEM_IUPAC_SYSTEMATIC_NAME>
(3S,6S)-3-[(4-hydroxyphenyl)methyl]-6-(phenylmethyl)piperazine-2,5-dione

> <PUBCHEM_IUPAC_TRADITIONAL_NAME>
(3S,6S)-3-benzyl-6-(4-hydroxybenzyl)piperazine-2,5-quinone

> <PUBCHEM_IUPAC_INCHI>
InChI=1S/C18H18N2O3/c21-14-8-6-13(7-9-14)11-16-18(23)19-15(17(22)20-16)10-12-4-2-1-3-5-12/h1-9,15-16,21H,10-11H2,(H,19,23)(H,20,22)/t15-,16-/m0/s1

> <PUBCHEM_IUPAC_INCHIKEY>
GRWVBLRIPRGGPD-HOTGVXAUSA-N

> <PUBCHEM_XLOGP3_AA>
2.3

> <PUBCHEM_EXACT_MASS>
310.132

> <PUBCHEM_MOLECULAR_FORMULA>
C18H18N2O3

> <PUBCHEM_MOLECULAR_WEIGHT>
310.353

> <PUBCHEM_OPENEYE_CAN_SMILES>
C1=CC=C(C=C1)CC2C(=O)NC(C(=O)N2)CC3=CC=C(C=C3)O

> <PUBCHEM_OPENEYE_ISO_SMILES>
C1=CC=C(C=C1)C[C@H]2C(=O)N[C@H](C(=O)N2)CC3=CC=C(C=C3)O

> <PUBCHEM_CACTVS_TPSA>
78.4

> <PUBCHEM_MONOISOTOPIC_WEIGHT>
310.132

> <PUBCHEM_TOTAL_CHARGE>
0

> <PUBCHEM_HEAVY_ATOM_COUNT>
23

> <PUBCHEM_ATOM_DEF_STEREO_COUNT>
2

> <PUBCHEM_ATOM_UDEF_STEREO_COUNT>
0

> <PUBCHEM_BOND_DEF_STEREO_COUNT>
0

> <PUBCHEM_BOND_UDEF_STEREO_COUNT>
0

> <PUBCHEM_ISOTOPIC_ATOM_COUNT>
0

> <PUBCHEM_COMPONENT_COUNT>
1

> <PUBCHEM_CACTVS_TAUTO_COUNT>
18

> <PUBCHEM_COORDINATE_TYPE>
1
5
255

> <PUBCHEM_BONDANNOTATIONS>
12  14  8
12  15  8
13  16  8
13  17  8
14  18  8
15  19  8
16  20  8
17  21  8
18  22  8
19  22  8
20  23  8
21  23  8
6  8  5
7  9  5

$$$$
