5317260
  -OEChem-12071809262D

 39 40  0     0  0  0  0  0  0999 V2000
    4.2690    0.5950    0.0000 O   0  0  0  0  0  0  0  0  0  0  0  0
    3.4030   -3.9050    0.0000 O   0  0  0  0  0  0  0  0  0  0  0  0
    2.5369   -0.4050    0.0000 O   0  0  0  0  0  0  0  0  0  0  0  0
    6.0010   -0.4050    0.0000 O   0  0  0  0  0  0  0  0  0  0  0  0
    3.4030    4.0950    0.0000 O   0  0  0  0  0  0  0  0  0  0  0  0
    6.8671    4.0950    0.0000 O   0  0  0  0  0  0  0  0  0  0  0  0
    5.1350    5.0950    0.0000 O   0  0  0  0  0  0  0  0  0  0  0  0
    6.0010    0.5950    0.0000 O   0  0  0  0  0  0  0  0  0  0  0  0
    5.1350   -3.9050    0.0000 O   0  0  0  0  0  0  0  0  0  0  0  0
    4.2690   -0.4050    0.0000 C   0  0  0  0  0  0  0  0  0  0  0  0
    4.2690   -2.4050    0.0000 C   0  0  0  0  0  0  0  0  0  0  0  0
    3.4030   -0.9050    0.0000 C   0  0  0  0  0  0  0  0  0  0  0  0
    5.1350   -0.9050    0.0000 C   0  0  0  0  0  0  0  0  0  0  0  0
    5.1350    2.0950    0.0000 C   0  0  0  0  0  0  0  0  0  0  0  0
    3.4030   -1.9050    0.0000 C   0  0  0  0  0  0  0  0  0  0  0  0
    5.1350   -1.9050    0.0000 C   0  0  0  0  0  0  0  0  0  0  0  0
    6.0010    2.5950    0.0000 C   0  0  0  0  0  0  0  0  0  0  0  0
    4.2690    2.5950    0.0000 C   0  0  0  0  0  0  0  0  0  0  0  0
    5.1350    1.0950    0.0000 C   0  0  0  0  0  0  0  0  0  0  0  0
    4.2690    3.5950    0.0000 C   0  0  0  0  0  0  0  0  0  0  0  0
    6.0010    3.5950    0.0000 C   0  0  0  0  0  0  0  0  0  0  0  0
    5.1350    4.0950    0.0000 C   0  0  0  0  0  0  0  0  0  0  0  0
    4.2690   -3.4050    0.0000 C   0  0  0  0  0  0  0  0  0  0  0  0
    3.4030   -4.9050    0.0000 C   0  0  0  0  0  0  0  0  0  0  0  0
    2.5369   -5.4050    0.0000 C   0  0  0  0  0  0  0  0  0  0  0  0
    2.8660   -2.2150    0.0000 H   0  0  0  0  0  0  0  0  0  0  0  0
    5.6720   -2.2150    0.0000 H   0  0  0  0  0  0  0  0  0  0  0  0
    6.5380    2.2850    0.0000 H   0  0  0  0  0  0  0  0  0  0  0  0
    3.7320    2.2850    0.0000 H   0  0  0  0  0  0  0  0  0  0  0  0
    3.6150   -5.4876    0.0000 H   0  0  0  0  0  0  0  0  0  0  0  0
    4.0135   -4.7973    0.0000 H   0  0  0  0  0  0  0  0  0  0  0  0
    2.0000   -0.7150    0.0000 H   0  0  0  0  0  0  0  0  0  0  0  0
    6.5380   -0.7150    0.0000 H   0  0  0  0  0  0  0  0  0  0  0  0
    2.2269   -4.8681    0.0000 H   0  0  0  0  0  0  0  0  0  0  0  0
    2.0000   -5.7150    0.0000 H   0  0  0  0  0  0  0  0  0  0  0  0
    2.8469   -5.9419    0.0000 H   0  0  0  0  0  0  0  0  0  0  0  0
    2.8660    3.7850    0.0000 H   0  0  0  0  0  0  0  0  0  0  0  0
    7.4040    3.7850    0.0000 H   0  0  0  0  0  0  0  0  0  0  0  0
    5.6720    5.4050    0.0000 H   0  0  0  0  0  0  0  0  0  0  0  0
  1 10  1  0  0  0  0
  1 19  1  0  0  0  0
  2 23  1  0  0  0  0
  2 24  1  0  0  0  0
  3 12  1  0  0  0  0
  3 32  1  0  0  0  0
  4 13  1  0  0  0  0
  4 33  1  0  0  0  0
  5 20  1  0  0  0  0
  5 37  1  0  0  0  0
  6 21  1  0  0  0  0
  6 38  1  0  0  0  0
  7 22  1  0  0  0  0
  7 39  1  0  0  0  0
  8 19  2  0  0  0  0
  9 23  2  0  0  0  0
 10 12  2  0  0  0  0
 10 13  1  0  0  0  0
 11 15  2  0  0  0  0
 11 16  1  0  0  0  0
 11 23  1  0  0  0  0
 12 15  1  0  0  0  0
 13 16  2  0  0  0  0
 14 17  2  0  0  0  0
 14 18  1  0  0  0  0
 14 19  1  0  0  0  0
 15 26  1  0  0  0  0
 16 27  1  0  0  0  0
 17 21  1  0  0  0  0
 17 28  1  0  0  0  0
 18 20  2  0  0  0  0
 18 29  1  0  0  0  0
 20 22  1  0  0  0  0
 21 22  2  0  0  0  0
 24 25  1  0  0  0  0
 24 30  1  0  0  0  0
 24 31  1  0  0  0  0
 25 34  1  0  0  0  0
 25 35  1  0  0  0  0
 25 36  1  0  0  0  0
M  END
> <PUBCHEM_COMPOUND_CID>
5317260

> <PUBCHEM_COMPOUND_CANONICALIZED>
1

> <PUBCHEM_CACTVS_COMPLEXITY>
458

> <PUBCHEM_CACTVS_HBOND_ACCEPTOR>
9

> <PUBCHEM_CACTVS_HBOND_DONOR>
5

> <PUBCHEM_CACTVS_ROTATABLE_BOND>
6

> <PUBCHEM_CACTVS_SUBSKEYS>
AAADccB4PAAAAAAAAAAAAAAAAAAAAAAAAAAwYAAAAAAAAAABQAAAGgAACAAADASgmAIyDoAABgCIAiDSCAACCAAkIAAAiAEGiMgNJzKGNRqCeyOlwBULuYfK7DzOIAABCAAAQABAAAIQAACAAAAAAAAAAA==

> <PUBCHEM_IUPAC_OPENEYE_NAME>
(4-ethoxycarbonyl-2,6-dihydroxy-phenyl) 3,4,5-trihydroxybenzoate

> <PUBCHEM_IUPAC_CAS_NAME>
3,4,5-trihydroxybenzoic acid (4-ethoxycarbonyl-2,6-dihydroxyphenyl) ester

> <PUBCHEM_IUPAC_NAME>
(4-ethoxycarbonyl-2,6-dihydroxyphenyl) 3,4,5-trihydroxybenzoate

> <PUBCHEM_IUPAC_SYSTEMATIC_NAME>
[4-ethoxycarbonyl-2,6-bis(oxidanyl)phenyl] 3,4,5-tris(oxidanyl)benzoate

> <PUBCHEM_IUPAC_TRADITIONAL_NAME>
3,4,5-trihydroxybenzoic acid (4-carbethoxy-2,6-dihydroxy-phenyl) ester

> <PUBCHEM_IUPAC_INCHI>
InChI=1S/C16H14O9/c1-2-24-15(22)7-5-11(19)14(12(20)6-7)25-16(23)8-3-9(17)13(21)10(18)4-8/h3-6,17-21H,2H2,1H3

> <PUBCHEM_IUPAC_INCHIKEY>
RWQUSEBCPMUDRK-UHFFFAOYSA-N

> <PUBCHEM_XLOGP3>
2

> <PUBCHEM_EXACT_MASS>
350.064

> <PUBCHEM_MOLECULAR_FORMULA>
C16H14O9

> <PUBCHEM_MOLECULAR_WEIGHT>
350.279

> <PUBCHEM_OPENEYE_CAN_SMILES>
CCOC(=O)C1=CC(=C(C(=C1)O)OC(=O)C2=CC(=C(C(=C2)O)O)O)O

> <PUBCHEM_OPENEYE_ISO_SMILES>
CCOC(=O)C1=CC(=C(C(=C1)O)OC(=O)C2=CC(=C(C(=C2)O)O)O)O

> <PUBCHEM_CACTVS_TPSA>
154

> <PUBCHEM_MONOISOTOPIC_WEIGHT>
350.064

> <PUBCHEM_TOTAL_CHARGE>
0

> <PUBCHEM_HEAVY_ATOM_COUNT>
25

> <PUBCHEM_ATOM_DEF_STEREO_COUNT>
0

> <PUBCHEM_ATOM_UDEF_STEREO_COUNT>
0

> <PUBCHEM_BOND_DEF_STEREO_COUNT>
0

> <PUBCHEM_BOND_UDEF_STEREO_COUNT>
0

> <PUBCHEM_ISOTOPIC_ATOM_COUNT>
0

> <PUBCHEM_COMPONENT_COUNT>
1

> <PUBCHEM_CACTVS_TAUTO_COUNT>
70

> <PUBCHEM_COORDINATE_TYPE>
1
5
255

> <PUBCHEM_BONDANNOTATIONS>
10  12  8
10  13  8
11  15  8
11  16  8
12  15  8
13  16  8
14  17  8
14  18  8
17  21  8
18  20  8
20  22  8
21  22  8

$$$$
