441922
  -OEChem-11191801362D

128133  0     1  0  0  0  0  0999 V2000
    8.2737   -1.1279    0.0000 O   0  0  0  0  0  0  0  0  0  0  0  0
    7.3742    4.4380    0.0000 O   0  0  0  0  0  0  0  0  0  0  0  0
   11.9187   -0.0969    0.0000 O   0  0  0  0  0  0  0  0  0  0  0  0
    4.3029    3.8707    0.0000 O   0  0  0  0  0  0  0  0  0  0  0  0
    6.5417   -1.1279    0.0000 O   0  0  0  0  0  0  0  0  0  0  0  0
    8.2737   -3.1279    0.0000 O   0  0  0  0  0  0  0  0  0  0  0  0
    6.5417   -4.1279    0.0000 O   0  0  0  0  0  0  0  0  0  0  0  0
    4.8096   -3.1279    0.0000 O   0  0  0  0  0  0  0  0  0  0  0  0
    7.4077   -4.6279    0.0000 O   0  0  0  0  0  0  0  0  0  0  0  0
    3.9436   -1.6279    0.0000 O   0  0  0  0  0  0  0  0  0  0  0  0
   10.0058   -4.1279    0.0000 O   0  0  0  0  0  0  0  0  0  0  0  0
   10.0058   -6.1279    0.0000 O   0  0  0  0  0  0  0  0  0  0  0  0
    8.2737   -7.1279    0.0000 O   0  0  0  0  0  0  0  0  0  0  0  0
    5.6757   -5.6279    0.0000 O   0  0  0  0  0  0  0  0  0  0  0  0
    7.3857    1.4380    0.0000 C   0  0  1  0  0  0  0  0  0  0  0  0
    6.5178    1.9346    0.0000 C   0  0  1  0  0  0  0  0  0  0  0  0
    8.2498    1.9413    0.0000 C   0  0  1  0  0  0  0  0  0  0  0  0
    9.1618    1.4380    0.0000 C   0  0  2  0  0  0  0  0  0  0  0  0
    6.5139    2.9346    0.0000 C   0  0  1  0  0  0  0  0  0  0  0  0
    9.1738    0.3964    0.0000 C   0  0  1  0  0  0  0  0  0  0  0  0
    7.3737    0.3964    0.0000 C   0  0  0  0  0  0  0  0  0  0  0  0
    8.2460    2.9413    0.0000 C   0  0  0  0  0  0  0  0  0  0  0  0
    5.5665    3.2357    0.0000 C   0  0  2  0  0  0  0  0  0  0  0  0
    7.3780    3.4380    0.0000 C   0  0  1  0  0  0  0  0  0  0  0  0
    8.2737   -0.1279    0.0000 C   0  0  2  0  0  0  0  0  0  0  0  0
    5.5727    1.6263    0.0000 C   0  0  0  0  0  0  0  0  0  0  0  0
   10.1113   -0.1497    0.0000 C   0  0  0  0  0  0  0  0  0  0  0  0
    4.9860    2.4287    0.0000 C   0  0  0  0  0  0  0  0  0  0  0  0
   10.0864    2.0056    0.0000 C   0  0  0  0  0  0  0  0  0  0  0  0
    6.7459    0.6695    0.0000 C   0  0  0  0  0  0  0  0  0  0  0  0
    6.1794    0.9936    0.0000 C   0  0  0  0  0  0  0  0  0  0  0  0
    9.1502    2.4379    0.0000 C   0  0  0  0  0  0  0  0  0  0  0  0
   11.0489    0.3964    0.0000 C   0  0  2  0  0  0  0  0  0  0  0  0
   11.0363    1.4813    0.0000 C   0  0  0  0  0  0  0  0  0  0  0  0
    5.2522    4.1850    0.0000 C   0  0  2  0  0  0  0  0  0  0  0  0
   10.6113   -1.0157    0.0000 C   0  0  0  0  0  0  0  0  0  0  0  0
    9.6113   -1.0157    0.0000 C   0  0  0  0  0  0  0  0  0  0  0  0
    4.9379    5.1344    0.0000 C   0  0  0  0  0  0  0  0  0  0  0  0
    6.2015    4.4994    0.0000 C   0  0  0  0  0  0  0  0  0  0  0  0
    7.4077   -1.6279    0.0000 C   0  0  2  0  0  0  0  0  0  0  0  0
    3.9586    5.3368    0.0000 C   0  0  0  0  0  0  0  0  0  0  0  0
    7.4077   -2.6279    0.0000 C   0  0  1  0  0  0  0  0  0  0  0  0
    6.5417   -3.1279    0.0000 C   0  0  2  0  0  0  0  0  0  0  0  0
    5.6757   -1.6279    0.0000 C   0  0  1  0  0  0  0  0  0  0  0  0
    3.6443    6.2861    0.0000 C   0  0  0  0  0  0  0  0  0  0  0  0
    5.6757   -2.6279    0.0000 C   0  0  1  0  0  0  0  0  0  0  0  0
    4.8096   -1.1279    0.0000 C   0  0  0  0  0  0  0  0  0  0  0  0
    2.6650    6.4886    0.0000 C   0  0  0  0  0  0  0  0  0  0  0  0
    8.2737   -4.1279    0.0000 C   0  0  2  0  0  0  0  0  0  0  0  0
    9.1398   -4.6279    0.0000 C   0  0  1  0  0  0  0  0  0  0  0  0
    2.3506    7.4379    0.0000 C   0  0  0  0  0  0  0  0  0  0  0  0
    2.0000    5.7417    0.0000 C   0  0  0  0  0  0  0  0  0  0  0  0
    9.1398   -5.6279    0.0000 C   0  0  2  0  0  0  0  0  0  0  0  0
    7.4077   -5.6279    0.0000 C   0  0  1  0  0  0  0  0  0  0  0  0
    8.2737   -6.1279    0.0000 C   0  0  1  0  0  0  0  0  0  0  0  0
    6.5417   -6.1279    0.0000 C   0  0  0  0  0  0  0  0  0  0  0  0
    8.9810    2.3748    0.0000 H   0  0  0  0  0  0  0  0  0  0  0  0
    6.4207    3.7795    0.0000 H   0  0  0  0  0  0  0  0  0  0  0  0
    9.1738   -0.4536    0.0000 H   0  0  0  0  0  0  0  0  0  0  0  0
    6.7641    0.5096    0.0000 H   0  0  0  0  0  0  0  0  0  0  0  0
    7.1579   -0.1848    0.0000 H   0  0  0  0  0  0  0  0  0  0  0  0
    8.8570    2.8360    0.0000 H   0  0  0  0  0  0  0  0  0  0  0  0
    8.4558    3.5247    0.0000 H   0  0  0  0  0  0  0  0  0  0  0  0
    4.7263    3.3644    0.0000 H   0  0  0  0  0  0  0  0  0  0  0  0
    7.9137    3.7500    0.0000 H   0  0  0  0  0  0  0  0  0  0  0  0
    8.8113   -0.4368    0.0000 H   0  0  0  0  0  0  0  0  0  0  0  0
    5.0366    1.3150    0.0000 H   0  0  0  0  0  0  0  0  0  0  0  0
    5.8260    1.0603    0.0000 H   0  0  0  0  0  0  0  0  0  0  0  0
    4.5236    2.8417    0.0000 H   0  0  0  0  0  0  0  0  0  0  0  0
    4.5268    2.0122    0.0000 H   0  0  0  0  0  0  0  0  0  0  0  0
   10.4745    2.4892    0.0000 H   0  0  0  0  0  0  0  0  0  0  0  0
    9.6764    2.4707    0.0000 H   0  0  0  0  0  0  0  0  0  0  0  0
    6.2694    1.0662    0.0000 H   0  0  0  0  0  0  0  0  0  0  0  0
    6.3492    0.1930    0.0000 H   0  0  0  0  0  0  0  0  0  0  0  0
    7.2223    0.2728    0.0000 H   0  0  0  0  0  0  0  0  0  0  0  0
    5.5960    1.2034    0.0000 H   0  0  0  0  0  0  0  0  0  0  0  0
    5.9696    0.4102    0.0000 H   0  0  0  0  0  0  0  0  0  0  0  0
    6.7628    0.7838    0.0000 H   0  0  0  0  0  0  0  0  0  0  0  0
    9.7701    2.4451    0.0000 H   0  0  0  0  0  0  0  0  0  0  0  0
    9.1430    3.0579    0.0000 H   0  0  0  0  0  0  0  0  0  0  0  0
    8.5302    2.4307    0.0000 H   0  0  0  0  0  0  0  0  0  0  0  0
   11.5828    0.7116    0.0000 H   0  0  0  0  0  0  0  0  0  0  0  0
   11.6484    1.3823    0.0000 H   0  0  0  0  0  0  0  0  0  0  0  0
   11.2386    2.0674    0.0000 H   0  0  0  0  0  0  0  0  0  0  0  0
   10.0744   -1.3257    0.0000 H   0  0  0  0  0  0  0  0  0  0  0  0
   10.9213   -1.5527    0.0000 H   0  0  0  0  0  0  0  0  0  0  0  0
   11.1483   -0.7057    0.0000 H   0  0  0  0  0  0  0  0  0  0  0  0
    9.0744   -0.7057    0.0000 H   0  0  0  0  0  0  0  0  0  0  0  0
    9.3013   -1.5527    0.0000 H   0  0  0  0  0  0  0  0  0  0  0  0
   10.1483   -1.3257    0.0000 H   0  0  0  0  0  0  0  0  0  0  0  0
    7.9099    4.7500    0.0000 H   0  0  0  0  0  0  0  0  0  0  0  0
    5.5514    5.2241    0.0000 H   0  0  0  0  0  0  0  0  0  0  0  0
    4.9561    5.7541    0.0000 H   0  0  0  0  0  0  0  0  0  0  0  0
    6.3964    3.9108    0.0000 H   0  0  0  0  0  0  0  0  0  0  0  0
    6.7901    4.6942    0.0000 H   0  0  0  0  0  0  0  0  0  0  0  0
    6.0066    5.0879    0.0000 H   0  0  0  0  0  0  0  0  0  0  0  0
    7.9446   -1.9379    0.0000 H   0  0  0  0  0  0  0  0  0  0  0  0
   12.4533    0.2172    0.0000 H   0  0  0  0  0  0  0  0  0  0  0  0
    3.8398    4.2830    0.0000 H   0  0  0  0  0  0  0  0  0  0  0  0
    3.3451    5.2471    0.0000 H   0  0  0  0  0  0  0  0  0  0  0  0
    3.9404    4.7171    0.0000 H   0  0  0  0  0  0  0  0  0  0  0  0
    7.4077   -3.2479    0.0000 H   0  0  0  0  0  0  0  0  0  0  0  0
    6.0047   -3.4379    0.0000 H   0  0  0  0  0  0  0  0  0  0  0  0
    5.6757   -1.0079    0.0000 H   0  0  0  0  0  0  0  0  0  0  0  0
    4.0565    6.7492    0.0000 H   0  0  0  0  0  0  0  0  0  0  0  0
    5.1387   -2.3179    0.0000 H   0  0  0  0  0  0  0  0  0  0  0  0
    5.2082   -0.6529    0.0000 H   0  0  0  0  0  0  0  0  0  0  0  0
    4.4111   -0.6529    0.0000 H   0  0  0  0  0  0  0  0  0  0  0  0
    7.7368   -3.8179    0.0000 H   0  0  0  0  0  0  0  0  0  0  0  0
    6.0047   -4.4379    0.0000 H   0  0  0  0  0  0  0  0  0  0  0  0
    4.8096   -3.7479    0.0000 H   0  0  0  0  0  0  0  0  0  0  0  0
    9.6767   -4.9379    0.0000 H   0  0  0  0  0  0  0  0  0  0  0  0
    2.9392    7.6328    0.0000 H   0  0  0  0  0  0  0  0  0  0  0  0
    1.5369    6.1540    0.0000 H   0  0  0  0  0  0  0  0  0  0  0  0
    2.1558    8.0264    0.0000 H   0  0  0  0  0  0  0  0  0  0  0  0
    1.7621    7.2430    0.0000 H   0  0  0  0  0  0  0  0  0  0  0  0
    1.5877    5.2786    0.0000 H   0  0  0  0  0  0  0  0  0  0  0  0
    2.4631    5.3294    0.0000 H   0  0  0  0  0  0  0  0  0  0  0  0
    3.4067   -1.3179    0.0000 H   0  0  0  0  0  0  0  0  0  0  0  0
    9.1398   -6.2479    0.0000 H   0  0  0  0  0  0  0  0  0  0  0  0
    6.8708   -5.3179    0.0000 H   0  0  0  0  0  0  0  0  0  0  0  0
    7.7368   -6.4379    0.0000 H   0  0  0  0  0  0  0  0  0  0  0  0
   10.5427   -4.4379    0.0000 H   0  0  0  0  0  0  0  0  0  0  0  0
    6.1432   -6.6028    0.0000 H   0  0  0  0  0  0  0  0  0  0  0  0
    6.9402   -6.6028    0.0000 H   0  0  0  0  0  0  0  0  0  0  0  0
   10.0058   -6.7479    0.0000 H   0  0  0  0  0  0  0  0  0  0  0  0
    7.7368   -7.4379    0.0000 H   0  0  0  0  0  0  0  0  0  0  0  0
    5.1387   -5.9379    0.0000 H   0  0  0  0  0  0  0  0  0  0  0  0
 25  1  1  1  0  0  0
 40  1  1  1  0  0  0
 24  2  1  6  0  0  0
  2 91  1  0  0  0  0
 33  3  1  6  0  0  0
  3 98  1  0  0  0  0
 35  4  1  6  0  0  0
  4 99  1  0  0  0  0
  5 40  1  0  0  0  0
  5 44  1  0  0  0  0
 42  6  1  6  0  0  0
 49  6  1  1  0  0  0
 43  7  1  1  0  0  0
  7110  1  0  0  0  0
 46  8  1  6  0  0  0
  8111  1  0  0  0  0
  9 49  1  0  0  0  0
  9 54  1  0  0  0  0
 10 47  1  0  0  0  0
 10119  1  0  0  0  0
 50 11  1  6  0  0  0
 11123  1  0  0  0  0
 53 12  1  1  0  0  0
 12126  1  0  0  0  0
 55 13  1  6  0  0  0
 13127  1  0  0  0  0
 14 56  1  0  0  0  0
 14128  1  0  0  0  0
 15 16  1  0  0  0  0
 15 17  1  0  0  0  0
 15 21  1  0  0  0  0
 15 30  1  6  0  0  0
 16 19  1  0  0  0  0
 16 26  1  0  0  0  0
 16 31  1  1  0  0  0
 17 18  1  0  0  0  0
 17 22  1  0  0  0  0
 17 57  1  1  0  0  0
 18 20  1  0  0  0  0
 18 29  1  0  0  0  0
 18 32  1  6  0  0  0
 19 23  1  0  0  0  0
 19 24  1  0  0  0  0
 19 58  1  6  0  0  0
 20 25  1  0  0  0  0
 20 27  1  0  0  0  0
 20 59  1  1  0  0  0
 21 25  1  0  0  0  0
 21 60  1  0  0  0  0
 21 61  1  0  0  0  0
 22 24  1  0  0  0  0
 22 62  1  0  0  0  0
 22 63  1  0  0  0  0
 23 28  1  0  0  0  0
 23 35  1  0  0  0  0
 23 64  1  1  0  0  0
 24 65  1  0  0  0  0
 25 66  1  0  0  0  0
 26 28  1  0  0  0  0
 26 67  1  0  0  0  0
 26 68  1  0  0  0  0
 27 33  1  0  0  0  0
 27 36  1  0  0  0  0
 27 37  1  0  0  0  0
 28 69  1  0  0  0  0
 28 70  1  0  0  0  0
 29 34  1  0  0  0  0
 29 71  1  0  0  0  0
 29 72  1  0  0  0  0
 30 73  1  0  0  0  0
 30 74  1  0  0  0  0
 30 75  1  0  0  0  0
 31 76  1  0  0  0  0
 31 77  1  0  0  0  0
 31 78  1  0  0  0  0
 32 79  1  0  0  0  0
 32 80  1  0  0  0  0
 32 81  1  0  0  0  0
 33 34  1  0  0  0  0
 33 82  1  0  0  0  0
 34 83  1  0  0  0  0
 34 84  1  0  0  0  0
 35 38  1  0  0  0  0
 35 39  1  0  0  0  0
 36 85  1  0  0  0  0
 36 86  1  0  0  0  0
 36 87  1  0  0  0  0
 37 88  1  0  0  0  0
 37 89  1  0  0  0  0
 37 90  1  0  0  0  0
 38 41  1  0  0  0  0
 38 92  1  0  0  0  0
 38 93  1  0  0  0  0
 39 94  1  0  0  0  0
 39 95  1  0  0  0  0
 39 96  1  0  0  0  0
 40 42  1  0  0  0  0
 40 97  1  0  0  0  0
 41 45  1  0  0  0  0
 41100  1  0  0  0  0
 41101  1  0  0  0  0
 42 43  1  0  0  0  0
 42102  1  0  0  0  0
 43 46  1  0  0  0  0
 43103  1  0  0  0  0
 44 46  1  0  0  0  0
 44 47  1  1  0  0  0
 44104  1  0  0  0  0
 45 48  2  0  0  0  0
 45105  1  0  0  0  0
 46106  1  0  0  0  0
 47107  1  0  0  0  0
 47108  1  0  0  0  0
 48 51  1  0  0  0  0
 48 52  1  0  0  0  0
 49 50  1  0  0  0  0
 49109  1  0  0  0  0
 50 53  1  0  0  0  0
 50112  1  0  0  0  0
 51113  1  0  0  0  0
 51115  1  0  0  0  0
 51116  1  0  0  0  0
 52114  1  0  0  0  0
 52117  1  0  0  0  0
 52118  1  0  0  0  0
 53 55  1  0  0  0  0
 53120  1  0  0  0  0
 54 55  1  0  0  0  0
 54 56  1  1  0  0  0
 54121  1  0  0  0  0
 55122  1  0  0  0  0
 56124  1  0  0  0  0
 56125  1  0  0  0  0
M  END
> <PUBCHEM_COMPOUND_CID>
441922

> <PUBCHEM_COMPOUND_CANONICALIZED>
1

> <PUBCHEM_CACTVS_COMPLEXITY>
1410

> <PUBCHEM_CACTVS_HBOND_ACCEPTOR>
14

> <PUBCHEM_CACTVS_HBOND_DONOR>
10

> <PUBCHEM_CACTVS_ROTATABLE_BOND>
10

> <PUBCHEM_CACTVS_SUBSKEYS>
AAADcfB8PAAAAAAAAAAAAAAAAAAAAYAAAAA0aMECAAAAAGDAAAAAGgAACAAAD1SwgAMCCAAABgCAAiBCAAAAAAAgAAAACAAAAAgREAIAAQAiQAAFgAAPAAPA4PwPgAAAAAAAAADAAAYAADAAAQAACAAAAA==

> <PUBCHEM_IUPAC_OPENEYE_NAME>
(2S,3R,4S,5S,6R)-2-[(2R,3R,4S,5S,6R)-2-[[(3S,5R,6S,8R,9R,10R,12R,13R,14R,17S)-3,12-dihydroxy-17-[(1S)-1-hydroxy-1,5-dimethyl-hex-4-enyl]-4,4,8,10,14-pentamethyl-2,3,5,6,7,9,11,12,13,15,16,17-dodecahydro-1H-cyclopenta[a]phenanthren-6-yl]oxy]-4,5-dihydroxy-6-(hydroxymethyl)tetrahydropyran-3-yl]oxy-6-(hydroxymethyl)tetrahydropyran-3,4,5-triol

> <PUBCHEM_IUPAC_CAS_NAME>
(2S,3R,4S,5S,6R)-2-[[(2R,3R,4S,5S,6R)-2-[[(3S,5R,6S,8R,9R,10R,12R,13R,14R,17S)-3,12-dihydroxy-17-[(2S)-2-hydroxy-6-methylhept-5-en-2-yl]-4,4,8,10,14-pentamethyl-2,3,5,6,7,9,11,12,13,15,16,17-dodecahydro-1H-cyclopenta[a]phenanthren-6-yl]oxy]-4,5-dihydroxy-6-(hydroxymethyl)-3-oxanyl]oxy]-6-(hydroxymethyl)oxane-3,4,5-triol

> <PUBCHEM_IUPAC_NAME>
(2S,3R,4S,5S,6R)-2-[(2R,3R,4S,5S,6R)-2-[[(3S,5R,6S,8R,9R,10R,12R,13R,14R,17S)-3,12-dihydroxy-17-[(2S)-2-hydroxy-6-methylhept-5-en-2-yl]-4,4,8,10,14-pentamethyl-2,3,5,6,7,9,11,12,13,15,16,17-dodecahydro-1H-cyclopenta[a]phenanthren-6-yl]oxy]-4,5-dihydroxy-6-(hydroxymethyl)oxan-3-yl]oxy-6-(hydroxymethyl)oxane-3,4,5-triol

> <PUBCHEM_IUPAC_SYSTEMATIC_NAME>
(2R,3S,4S,5R,6S)-2-(hydroxymethyl)-6-[(2R,3R,4S,5S,6R)-6-(hydroxymethyl)-4,5-bis(oxidanyl)-2-[[(3S,5R,6S,8R,9R,10R,12R,13R,14R,17S)-4,4,8,10,14-pentamethyl-17-[(2S)-6-methyl-2-oxidanyl-hept-5-en-2-yl]-3,12-bis(oxidanyl)-2,3,5,6,7,9,11,12,13,15,16,17-dodecahydro-1H-cyclopenta[a]phenanthren-6-yl]oxy]oxan-3-yl]oxy-oxane-3,4,5-triol

> <PUBCHEM_IUPAC_TRADITIONAL_NAME>
(2S,3R,4S,5S,6R)-2-[(2R,3R,4S,5S,6R)-2-[[(3S,5R,6S,8R,9R,10R,12R,13R,14R,17S)-3,12-dihydroxy-17-[(1S)-1-hydroxy-1,5-dimethyl-hex-4-enyl]-4,4,8,10,14-pentamethyl-2,3,5,6,7,9,11,12,13,15,16,17-dodecahydro-1H-cyclopenta[a]phenanthren-6-yl]oxy]-4,5-dihydroxy-6-methylol-tetrahydropyran-3-yl]oxy-6-methylol-tetrahydropyran-3,4,5-triol

> <PUBCHEM_IUPAC_INCHI>
InChI=1S/C42H72O14/c1-20(2)10-9-13-42(8,52)21-11-15-40(6)28(21)22(45)16-26-39(5)14-12-27(46)38(3,4)35(39)23(17-41(26,40)7)53-37-34(32(50)30(48)25(19-44)55-37)56-36-33(51)31(49)29(47)24(18-43)54-36/h10,21-37,43-52H,9,11-19H2,1-8H3/t21-,22+,23-,24+,25+,26+,27-,28-,29+,30+,31-,32-,33+,34+,35-,36-,37+,39+,40+,41+,42-/m0/s1

> <PUBCHEM_IUPAC_INCHIKEY>
UZIOUZHBUYLDHW-XUBRWZAZSA-N

> <PUBCHEM_XLOGP3_AA>
2.7

> <PUBCHEM_EXACT_MASS>
800.492

> <PUBCHEM_MOLECULAR_FORMULA>
C42H72O14

> <PUBCHEM_MOLECULAR_WEIGHT>
801.024

> <PUBCHEM_OPENEYE_CAN_SMILES>
CC(=CCCC(C)(C1CCC2(C1C(CC3C2(CC(C4C3(CCC(C4(C)C)O)C)OC5C(C(C(C(O5)CO)O)O)OC6C(C(C(C(O6)CO)O)O)O)C)O)C)O)C

> <PUBCHEM_OPENEYE_ISO_SMILES>
CC(=CCC[C@@](C)([C@H]1CC[C@@]2([C@@H]1[C@@H](C[C@H]3[C@]2(C[C@@H]([C@@H]4[C@@]3(CC[C@@H](C4(C)C)O)C)O[C@H]5[C@@H]([C@H]([C@@H]([C@H](O5)CO)O)O)O[C@H]6[C@@H]([C@H]([C@@H]([C@H](O6)CO)O)O)O)C)O)C)O)C

> <PUBCHEM_CACTVS_TPSA>
239

> <PUBCHEM_MONOISOTOPIC_WEIGHT>
800.492

> <PUBCHEM_TOTAL_CHARGE>
0

> <PUBCHEM_HEAVY_ATOM_COUNT>
56

> <PUBCHEM_ATOM_DEF_STEREO_COUNT>
21

> <PUBCHEM_ATOM_UDEF_STEREO_COUNT>
0

> <PUBCHEM_BOND_DEF_STEREO_COUNT>
0

> <PUBCHEM_BOND_UDEF_STEREO_COUNT>
0

> <PUBCHEM_ISOTOPIC_ATOM_COUNT>
0

> <PUBCHEM_COMPONENT_COUNT>
1

> <PUBCHEM_CACTVS_TAUTO_COUNT>
1

> <PUBCHEM_COORDINATE_TYPE>
1
5
255

> <PUBCHEM_BONDANNOTATIONS>
25  1  5
40  1  5
50  11  6
53  12  5
55  13  6
15  30  6
16  31  5
17  57  5
18  32  6
19  58  6
24  2  6
20  59  5
23  64  5
33  3  6
35  4  6
44  47  5
54  56  5
42  6  6
49  6  5
43  7  5
46  8  6

$$$$
