71750952
  -OEChem-11191801322D

 35 37  0     0  0  0  0  0  0999 V2000
    2.0000    2.3555    0.0000 O   0  0  0  0  0  0  0  0  0  0  0  0
    7.9123    0.1452    0.0000 O   0  5  0  0  0  0  0  0  0  0  0  0
    7.0405   -1.3514    0.0000 O   0  0  0  0  0  0  0  0  0  0  0  0
    3.5984    1.7962    0.0000 N   0  0  0  0  0  0  0  0  0  0  0  0
    2.6235   -0.2283    0.0000 N   0  0  0  0  0  0  0  0  0  0  0  0
    7.0444   -0.3514    0.0000 N   0  3  0  0  0  0  0  0  0  0  0  0
    4.3802    0.1727    0.0000 C   0  0  0  0  0  0  0  0  0  0  0  0
    4.3802    1.1727    0.0000 C   0  0  0  0  0  0  0  0  0  0  0  0
    3.5984   -0.4508    0.0000 C   0  0  0  0  0  0  0  0  0  0  0  0
    5.2742   -0.3620    0.0000 C   0  0  0  0  0  0  0  0  0  0  0  0
    5.2742    1.7074    0.0000 C   0  0  0  0  0  0  0  0  0  0  0  0
    2.1896    0.6727    0.0000 C   0  0  0  0  0  0  0  0  0  0  0  0
    2.6235    1.5737    0.0000 C   0  0  0  0  0  0  0  0  0  0  0  0
    3.8209   -1.4257    0.0000 C   0  0  0  0  0  0  0  0  0  0  0  0
    6.1803    0.1519    0.0000 C   0  0  0  0  0  0  0  0  0  0  0  0
    6.1803    1.1935    0.0000 C   0  0  0  0  0  0  0  0  0  0  0  0
    3.8209    2.7711    0.0000 C   0  0  0  0  0  0  0  0  0  0  0  0
    3.0879   -2.1059    0.0000 C   0  0  0  0  0  0  0  0  0  0  0  0
    4.7765   -1.7205    0.0000 C   0  0  0  0  0  0  0  0  0  0  0  0
    3.3104   -3.0808    0.0000 C   0  0  0  0  0  0  0  0  0  0  0  0
    4.9990   -2.6954    0.0000 C   0  0  0  0  0  0  0  0  0  0  0  0
    4.2660   -3.3756    0.0000 C   0  0  0  0  0  0  0  0  0  0  0  0
    5.2670   -0.9819    0.0000 H   0  0  0  0  0  0  0  0  0  0  0  0
    5.2670    2.3273    0.0000 H   0  0  0  0  0  0  0  0  0  0  0  0
    1.7049    1.0593    0.0000 H   0  0  0  0  0  0  0  0  0  0  0  0
    1.7049    0.2861    0.0000 H   0  0  0  0  0  0  0  0  0  0  0  0
    6.7160    1.5056    0.0000 H   0  0  0  0  0  0  0  0  0  0  0  0
    3.9589    3.3756    0.0000 H   1  0  0  0  0  0  0  0  0  0  0  0
    3.2165    2.9091    0.0000 H   1  0  0  0  0  0  0  0  0  0  0  0
    4.4254    2.6332    0.0000 H   1  0  0  0  0  0  0  0  0  0  0  0
    2.4954   -1.9231    0.0000 H   0  0  0  0  0  0  0  0  0  0  0  0
    5.2310   -1.2988    0.0000 H   0  0  0  0  0  0  0  0  0  0  0  0
    2.8559   -3.5025    0.0000 H   0  0  0  0  0  0  0  0  0  0  0  0
    5.5915   -2.8782    0.0000 H   0  0  0  0  0  0  0  0  0  0  0  0
    4.4039   -3.9800    0.0000 H   0  0  0  0  0  0  0  0  0  0  0  0
  1 13  2  0  0  0  0
  2  6  1  0  0  0  0
  3  6  2  0  0  0  0
  4  8  1  0  0  0  0
  4 13  1  0  0  0  0
  4 17  1  0  0  0  0
  5  9  2  0  0  0  0
  5 12  1  0  0  0  0
  6 15  1  0  0  0  0
  7  8  2  0  0  0  0
  7  9  1  0  0  0  0
  7 10  1  0  0  0  0
  8 11  1  0  0  0  0
  9 14  1  0  0  0  0
 10 15  2  0  0  0  0
 10 23  1  0  0  0  0
 11 16  2  0  0  0  0
 11 24  1  0  0  0  0
 12 13  1  0  0  0  0
 12 25  1  0  0  0  0
 12 26  1  0  0  0  0
 14 18  2  0  0  0  0
 14 19  1  0  0  0  0
 15 16  1  0  0  0  0
 16 27  1  0  0  0  0
 17 28  1  0  0  0  0
 17 29  1  0  0  0  0
 17 30  1  0  0  0  0
 18 20  1  0  0  0  0
 18 31  1  0  0  0  0
 19 21  2  0  0  0  0
 19 32  1  0  0  0  0
 20 22  2  0  0  0  0
 20 33  1  0  0  0  0
 21 22  1  0  0  0  0
 21 34  1  0  0  0  0
 22 35  1  0  0  0  0
M  CHG  2   2  -1   6   1
M  ISO  3  28   2  29   2  30   2
M  END
> <PUBCHEM_COMPOUND_CID>
71750952

> <PUBCHEM_COMPOUND_CANONICALIZED>
1

> <PUBCHEM_CACTVS_COMPLEXITY>
480

> <PUBCHEM_CACTVS_HBOND_ACCEPTOR>
4

> <PUBCHEM_CACTVS_HBOND_DONOR>
0

> <PUBCHEM_CACTVS_ROTATABLE_BOND>
1

> <PUBCHEM_CACTVS_SUBSKEYS>
AAADccB7MAAAAAAAAAAAAAAAAAAAAAAAAAAwYAAABAAAAAABQAAAHgAEAAAADAjBmAQywIMQQACpAyVyVwCCAAAhAgAoiACoZJoIYKLAkZGUIAhghgDIyAcQgMAOAACAQAACAAAAAQCAAAQAAAAAAAAAAA==

> <PUBCHEM_IUPAC_OPENEYE_NAME>
7-nitro-5-phenyl-1-(trideuteriomethyl)-3H-1,4-benzodiazepin-2-one

> <PUBCHEM_IUPAC_CAS_NAME>
7-nitro-5-phenyl-1-(trideuteriomethyl)-3H-1,4-benzodiazepin-2-one

> <PUBCHEM_IUPAC_NAME>
7-nitro-5-phenyl-1-(trideuteriomethyl)-3H-1,4-benzodiazepin-2-one

> <PUBCHEM_IUPAC_SYSTEMATIC_NAME>
7-nitro-5-phenyl-1-(trideuteriomethyl)-3H-1,4-benzodiazepin-2-one

> <PUBCHEM_IUPAC_TRADITIONAL_NAME>
7-nitro-5-phenyl-1-(trideuteriomethyl)-3H-1,4-benzodiazepin-2-one

> <PUBCHEM_IUPAC_INCHI>
InChI=1S/C16H13N3O3/c1-18-14-8-7-12(19(21)22)9-13(14)16(17-10-15(18)20)11-5-3-2-4-6-11/h2-9H,10H2,1H3/i1D3

> <PUBCHEM_IUPAC_INCHIKEY>
GWUSZQUVEVMBPI-FIBGUPNXSA-N

> <PUBCHEM_XLOGP3>
2.2

> <PUBCHEM_EXACT_MASS>
298.115

> <PUBCHEM_MOLECULAR_FORMULA>
C16H13N3O3

> <PUBCHEM_MOLECULAR_WEIGHT>
298.316

> <PUBCHEM_OPENEYE_CAN_SMILES>
CN1C(=O)CN=C(C2=C1C=CC(=C2)[N+](=O)[O-])C3=CC=CC=C3

> <PUBCHEM_OPENEYE_ISO_SMILES>
[2H]C([2H])([2H])N1C(=O)CN=C(C2=C1C=CC(=C2)[N+](=O)[O-])C3=CC=CC=C3

> <PUBCHEM_CACTVS_TPSA>
78.5

> <PUBCHEM_MONOISOTOPIC_WEIGHT>
298.115

> <PUBCHEM_TOTAL_CHARGE>
0

> <PUBCHEM_HEAVY_ATOM_COUNT>
22

> <PUBCHEM_ATOM_DEF_STEREO_COUNT>
0

> <PUBCHEM_ATOM_UDEF_STEREO_COUNT>
0

> <PUBCHEM_BOND_DEF_STEREO_COUNT>
0

> <PUBCHEM_BOND_UDEF_STEREO_COUNT>
0

> <PUBCHEM_ISOTOPIC_ATOM_COUNT>
3

> <PUBCHEM_COMPONENT_COUNT>
1

> <PUBCHEM_CACTVS_TAUTO_COUNT>
2

> <PUBCHEM_COORDINATE_TYPE>
1
5
255

> <PUBCHEM_BONDANNOTATIONS>
10  15  8
11  16  8
14  18  8
14  19  8
15  16  8
18  20  8
19  21  8
20  22  8
21  22  8
7  10  8
7  8  8
8  11  8

$$$$
