6326198
  -OEChem-12071820562D

 39 40  0     1  0  0  0  0  0999 V2000
    4.6489    0.4015    0.0000 C   0  0  2  0  0  0  0  0  0  0  0  0
    4.3901   -0.5645    0.0000 C   0  0  1  0  0  0  0  0  0  0  0  0
    5.6618   -1.3591    0.0000 C   0  0  1  0  0  0  0  0  0  0  0  0
    2.6157    0.0903    0.0000 C   0  0  1  0  0  0  0  0  0  0  0  0
    6.0806    0.2038    0.0000 C   0  0  0  0  0  0  0  0  0  0  0  0
    3.9123    1.3841    0.0000 C   0  0  0  0  0  0  0  0  0  0  0  0
    6.4389   -0.7298    0.0000 C   0  0  0  0  0  0  0  0  0  0  0  0
    3.1691   -1.4301    0.0000 C   0  0  0  0  0  0  0  0  0  0  0  0
    2.3400   -0.8709    0.0000 C   0  0  0  0  0  0  0  0  0  0  0  0
    4.9077    1.3674    0.0000 C   0  0  0  0  0  0  0  0  0  0  0  0
    5.2078   -2.2501    0.0000 C   0  0  0  0  0  0  0  0  0  0  0  0
    2.0000    0.8783    0.0000 C   0  0  0  0  0  0  0  0  0  0  0  0
    6.2064   -2.1978    0.0000 C   0  0  0  0  0  0  0  0  0  0  0  0
    3.4123    2.2501    0.0000 C   0  0  0  0  0  0  0  0  0  0  0  0
    7.2050   -2.1454    0.0000 C   0  0  0  0  0  0  0  0  0  0  0  0
    4.1701   -1.3855    0.0000 H   0  0  0  0  0  0  0  0  0  0  0  0
    2.0070   -0.0280    0.0000 H   0  0  0  0  0  0  0  0  0  0  0  0
    6.6884    0.3261    0.0000 H   0  0  0  0  0  0  0  0  0  0  0  0
    6.0615    0.8235    0.0000 H   0  0  0  0  0  0  0  0  0  0  0  0
    6.7766   -1.2498    0.0000 H   0  0  0  0  0  0  0  0  0  0  0  0
    6.9913   -0.4483    0.0000 H   0  0  0  0  0  0  0  0  0  0  0  0
    2.7632   -1.8988    0.0000 H   0  0  0  0  0  0  0  0  0  0  0  0
    3.5857   -1.8892    0.0000 H   0  0  0  0  0  0  0  0  0  0  0  0
    1.7652   -0.6387    0.0000 H   0  0  0  0  0  0  0  0  0  0  0  0
    2.0490   -1.4184    0.0000 H   0  0  0  0  0  0  0  0  0  0  0  0
    5.5066    1.2069    0.0000 H   0  0  0  0  0  0  0  0  0  0  0  0
    5.0682    1.9663    0.0000 H   0  0  0  0  0  0  0  0  0  0  0  0
    4.3088    1.5279    0.0000 H   0  0  0  0  0  0  0  0  0  0  0  0
    4.6554   -1.9686    0.0000 H   0  0  0  0  0  0  0  0  0  0  0  0
    4.9263   -2.8025    0.0000 H   0  0  0  0  0  0  0  0  0  0  0  0
    5.7602   -2.5316    0.0000 H   0  0  0  0  0  0  0  0  0  0  0  0
    2.4886    1.2600    0.0000 H   0  0  0  0  0  0  0  0  0  0  0  0
    1.6183    1.3669    0.0000 H   0  0  0  0  0  0  0  0  0  0  0  0
    1.5114    0.4966    0.0000 H   0  0  0  0  0  0  0  0  0  0  0  0
    5.9249   -2.7502    0.0000 H   0  0  0  0  0  0  0  0  0  0  0  0
    3.7223    2.7870    0.0000 H   0  0  0  0  0  0  0  0  0  0  0  0
    2.7923    2.2501    0.0000 H   0  0  0  0  0  0  0  0  0  0  0  0
    7.5427   -2.6654    0.0000 H   0  0  0  0  0  0  0  0  0  0  0  0
    7.4865   -1.5930    0.0000 H   0  0  0  0  0  0  0  0  0  0  0  0
  1  4  1  0  0  0  0
  1  5  1  0  0  0  0
  1  6  1  0  0  0  0
  1 10  1  6  0  0  0
  2  3  1  0  0  0  0
  2  6  1  0  0  0  0
  2  8  1  0  0  0  0
  2 16  1  1  0  0  0
  3  7  1  0  0  0  0
  3 11  1  1  0  0  0
  3 13  1  0  0  0  0
  4  9  1  0  0  0  0
  4 12  1  1  0  0  0
  4 17  1  0  0  0  0
  5  7  1  0  0  0  0
  5 18  1  0  0  0  0
  5 19  1  0  0  0  0
  6 14  2  0  0  0  0
  7 20  1  0  0  0  0
  7 21  1  0  0  0  0
  8  9  1  0  0  0  0
  8 22  1  0  0  0  0
  8 23  1  0  0  0  0
  9 24  1  0  0  0  0
  9 25  1  0  0  0  0
 10 26  1  0  0  0  0
 10 27  1  0  0  0  0
 10 28  1  0  0  0  0
 11 29  1  0  0  0  0
 11 30  1  0  0  0  0
 11 31  1  0  0  0  0
 12 32  1  0  0  0  0
 12 33  1  0  0  0  0
 12 34  1  0  0  0  0
 13 15  2  0  0  0  0
 13 35  1  0  0  0  0
 14 36  1  0  0  0  0
 14 37  1  0  0  0  0
 15 38  1  0  0  0  0
 15 39  1  0  0  0  0
M  END
> <PUBCHEM_COMPOUND_CID>
6326198

> <PUBCHEM_COMPOUND_CANONICALIZED>
1

> <PUBCHEM_CACTVS_COMPLEXITY>
301

> <PUBCHEM_CACTVS_HBOND_ACCEPTOR>
0

> <PUBCHEM_CACTVS_HBOND_DONOR>
0

> <PUBCHEM_CACTVS_ROTATABLE_BOND>
1

> <PUBCHEM_CACTVS_SUBSKEYS>
AAADceBwAAAAAAAAAAAAAAAAAAAAAAAAAAAwYAAAAAAYAAAAAAAAGAAAAAAADwCAAAACAAAAAACAAiBCAAAAAAAgAAAIAAAAAAgAAAIAAQAAAAAAgAAAAAEAgMAPgAAAAAAAAACAAAQAACAAAAAAAAAAAA==

> <PUBCHEM_IUPAC_OPENEYE_NAME>
(1S,2R,5S,6R)-2,5,6-trimethyl-9-methylene-2-vinyl-bicyclo[3.3.1]nonane

> <PUBCHEM_IUPAC_CAS_NAME>
(1S,2R,5S,6R)-2-ethenyl-2,5,6-trimethyl-9-methylenebicyclo[3.3.1]nonane

> <PUBCHEM_IUPAC_NAME>
(1S,2R,5S,6R)-2-ethenyl-2,5,6-trimethyl-9-methylidenebicyclo[3.3.1]nonane

> <PUBCHEM_IUPAC_SYSTEMATIC_NAME>
(1S,2R,5S,6R)-2-ethenyl-2,5,6-trimethyl-9-methylidene-bicyclo[3.3.1]nonane

> <PUBCHEM_IUPAC_TRADITIONAL_NAME>
(1S,2R,5S,6R)-2,5,6-trimethyl-9-methylene-2-vinyl-bicyclo[3.3.1]nonane

> <PUBCHEM_IUPAC_INCHI>
InChI=1S/C15H24/c1-6-14(4)9-10-15(5)11(2)7-8-13(14)12(15)3/h6,11,13H,1,3,7-10H2,2,4-5H3/t11-,13-,14+,15+/m1/s1

> <PUBCHEM_IUPAC_INCHIKEY>
UYQNCGFXZZVAAK-RZFFKMDDSA-N

> <PUBCHEM_XLOGP3_AA>
5.3

> <PUBCHEM_EXACT_MASS>
204.188

> <PUBCHEM_MOLECULAR_FORMULA>
C15H24

> <PUBCHEM_MOLECULAR_WEIGHT>
204.357

> <PUBCHEM_OPENEYE_CAN_SMILES>
CC1CCC2C(=C)C1(CCC2(C)C=C)C

> <PUBCHEM_OPENEYE_ISO_SMILES>
C[C@@H]1CC[C@@H]2C(=C)[C@]1(CC[C@]2(C)C=C)C

> <PUBCHEM_CACTVS_TPSA>
0

> <PUBCHEM_MONOISOTOPIC_WEIGHT>
204.188

> <PUBCHEM_TOTAL_CHARGE>
0

> <PUBCHEM_HEAVY_ATOM_COUNT>
15

> <PUBCHEM_ATOM_DEF_STEREO_COUNT>
4

> <PUBCHEM_ATOM_UDEF_STEREO_COUNT>
0

> <PUBCHEM_BOND_DEF_STEREO_COUNT>
0

> <PUBCHEM_BOND_UDEF_STEREO_COUNT>
0

> <PUBCHEM_ISOTOPIC_ATOM_COUNT>
0

> <PUBCHEM_COMPONENT_COUNT>
1

> <PUBCHEM_CACTVS_TAUTO_COUNT>
1

> <PUBCHEM_COORDINATE_TYPE>
1
5
255

> <PUBCHEM_BONDANNOTATIONS>
1  10  6
2  16  5
3  11  5
4  12  5

$$$$
